 Entering Gaussian System, Link 0=g16
 Input=aGlc.gjf
 Output=aGlc.log
 Initial command:
 /opt/applications/gaussian/16/l1.exe "/tmp/Gau-3005061.inp" -scrdir="/tmp/"
 Entering Link 1 = /opt/applications/gaussian/16/l1.exe PID=   3005062.
  
 Copyright (c) 1988-2017, Gaussian, Inc.  All Rights Reserved.
  
 This is part of the Gaussian(R) 16 program.  It is based on
 the Gaussian(R) 09 system (copyright 2009, Gaussian, Inc.),
 the Gaussian(R) 03 system (copyright 2003, Gaussian, Inc.),
 the Gaussian(R) 98 system (copyright 1998, Gaussian, Inc.),
 the Gaussian(R) 94 system (copyright 1995, Gaussian, Inc.),
 the Gaussian 92(TM) system (copyright 1992, Gaussian, Inc.),
 the Gaussian 90(TM) system (copyright 1990, Gaussian, Inc.),
 the Gaussian 88(TM) system (copyright 1988, Gaussian, Inc.),
 the Gaussian 86(TM) system (copyright 1986, Carnegie Mellon
 University), and the Gaussian 82(TM) system (copyright 1983,
 Carnegie Mellon University). Gaussian is a federally registered
 trademark of Gaussian, Inc.
  
 This software contains proprietary and confidential information,
 including trade secrets, belonging to Gaussian, Inc.
  
 This software is provided under written license and may be
 used, copied, transmitted, or stored only in accord with that
 written license.
  
 The following legend is applicable only to US Government
 contracts under FAR:
  
                    RESTRICTED RIGHTS LEGEND
  
 Use, reproduction and disclosure by the US Government is
 subject to restrictions as set forth in subparagraphs (a)
 and (c) of the Commercial Computer Software - Restricted
 Rights clause in FAR 52.227-19.
  
 Gaussian, Inc.
 340 Quinnipiac St., Bldg. 40, Wallingford CT 06492
  
  
 ---------------------------------------------------------------
 Warning -- This program may not be used in any manner that
 competes with the business of Gaussian, Inc. or will provide
 assistance to any competitor of Gaussian, Inc.  The licensee
 of this program is prohibited from giving any competitor of
 Gaussian, Inc. access to this program.  By using this program,
 the user acknowledges that Gaussian, Inc. is engaged in the
 business of creating and licensing software in the field of
 computational chemistry and represents and warrants to the
 licensee that it is not a competitor of Gaussian, Inc. and that
 it will not use this program in any manner prohibited above.
 ---------------------------------------------------------------
  

 Cite this work as:
 Gaussian 16, Revision B.01,
 M. J. Frisch, G. W. Trucks, H. B. Schlegel, G. E. Scuseria, 
 M. A. Robb, J. R. Cheeseman, G. Scalmani, V. Barone, 
 G. A. Petersson, H. Nakatsuji, X. Li, M. Caricato, A. V. Marenich, 
 J. Bloino, B. G. Janesko, R. Gomperts, B. Mennucci, H. P. Hratchian, 
 J. V. Ortiz, A. F. Izmaylov, J. L. Sonnenberg, D. Williams-Young, 
 F. Ding, F. Lipparini, F. Egidi, J. Goings, B. Peng, A. Petrone, 
 T. Henderson, D. Ranasinghe, V. G. Zakrzewski, J. Gao, N. Rega, 
 G. Zheng, W. Liang, M. Hada, M. Ehara, K. Toyota, R. Fukuda, 
 J. Hasegawa, M. Ishida, T. Nakajima, Y. Honda, O. Kitao, H. Nakai, 
 T. Vreven, K. Throssell, J. A. Montgomery, Jr., J. E. Peralta, 
 F. Ogliaro, M. J. Bearpark, J. J. Heyd, E. N. Brothers, K. N. Kudin, 
 V. N. Staroverov, T. A. Keith, R. Kobayashi, J. Normand, 
 K. Raghavachari, A. P. Rendell, J. C. Burant, S. S. Iyengar, 
 J. Tomasi, M. Cossi, J. M. Millam, M. Klene, C. Adamo, R. Cammi, 
 J. W. Ochterski, R. L. Martin, K. Morokuma, O. Farkas, 
 J. B. Foresman, and D. J. Fox, Gaussian, Inc., Wallingford CT, 2016.
 
 ******************************************
 Gaussian 16:  ES64L-G16RevB.01 20-Dec-2017
                21-Jul-2026 
 ******************************************
 ---------------------------------------------
 #external='bash gausch.sh' opt=nomicro nosymm
 ---------------------------------------------
 1/18=20,19=15,26=1,38=1/1,3;
 2/9=110,12=2,15=1,17=6,18=5,40=1/2;
 3/11=9,25=1,30=1,41=9900000,43=2,71=1/1;
 4/20=17,22=1,24=3,113=1,114=1/2;
 6/7=2,8=2,9=2,10=2/1;
 7/30=1,44=-1/16;
 1/18=20,19=15,26=1/3(2);
 2/9=110,15=1/2;
 99//99;
 2/9=110,15=1/2;
 3/11=9,25=1,30=1,41=9900000,43=2,71=1/1;
 4/16=2,20=17,22=1,24=3,113=1,114=1/2;
 7/30=1,44=-1/16;
 1/18=20,19=15,26=1/3(-4);
 2/9=110,15=1/2;
 6/7=2,8=2,9=2,10=2/1;
 99/9=10/99;
 ----------
 SchNet-G16
 ----------
 Symbolic Z-matrix:
 Charge =  0 Multiplicity = 1
 O                     0.30891   1.37105  -0.01142 
 C                     1.29478   0.44675   0.46485 
 H                     1.87603   0.99254   1.2458 
 O                     2.16151   0.07972  -0.60816 
 H                     2.45786   0.87978  -1.06802 
 C                     0.66402  -0.84728   1.02278 
 H                     0.1436   -0.64322   1.97526 
 O                     1.70691  -1.79022   1.29824 
 H                     2.3664   -1.71492   0.58847 
 C                    -0.33104  -1.4441   -0.00166 
 H                     0.23701  -1.80427  -0.88797 
 O                    -1.04277  -2.54366   0.57412 
 H                    -0.4052   -3.08795   1.06271 
 C                    -1.34013  -0.37203  -0.44335 
 H                    -1.94378  -0.04989   0.43538 
 O                    -2.22024  -0.92699  -1.4289 
 H                    -2.46295  -1.81716  -1.12384 
 C                    -0.59653   0.84561  -1.0312 
 H                     0.01032   0.52044  -1.90146 
 C                    -1.53374   1.99093  -1.44656 
 H                    -2.18801   2.27109  -0.59244 
 H                    -0.94765   2.88365  -1.71394 
 O                    -2.30706   1.61504  -2.56714 
 H                    -2.61939   0.70163  -2.44383 
 

 GradGradGradGradGradGradGradGradGradGradGradGradGradGradGradGradGradGrad
 Berny optimization.
 Initialization pass.
                           ----------------------------
                           !    Initial Parameters    !
                           ! (Angstroms and Degrees)  !
 --------------------------                            --------------------------
 ! Name  Definition              Value          Derivative Info.                !
 --------------------------------------------------------------------------------
 ! R1    R(1,2)                  1.4329         estimate D2E/DX2                !
 ! R2    R(1,18)                 1.4615         estimate D2E/DX2                !
 ! R3    R(2,3)                  1.1161         estimate D2E/DX2                !
 ! R4    R(2,4)                  1.4273         estimate D2E/DX2                !
 ! R5    R(2,6)                  1.5439         estimate D2E/DX2                !
 ! R6    R(4,5)                  0.9692         estimate D2E/DX2                !
 ! R7    R(6,7)                  1.1044         estimate D2E/DX2                !
 ! R8    R(6,8)                  1.4327         estimate D2E/DX2                !
 ! R9    R(6,10)                 1.5478         estimate D2E/DX2                !
 ! R10   R(8,9)                  0.9718         estimate D2E/DX2                !
 ! R11   R(10,11)                1.1126         estimate D2E/DX2                !
 ! R12   R(10,12)                1.4308         estimate D2E/DX2                !
 ! R13   R(10,14)                1.5371         estimate D2E/DX2                !
 ! R14   R(12,13)                0.9703         estimate D2E/DX2                !
 ! R15   R(14,15)                1.1137         estimate D2E/DX2                !
 ! R16   R(14,16)                1.4331         estimate D2E/DX2                !
 ! R17   R(14,18)                1.5431         estimate D2E/DX2                !
 ! R18   R(16,17)                0.9718         estimate D2E/DX2                !
 ! R19   R(18,19)                1.1097         estimate D2E/DX2                !
 ! R20   R(18,20)                1.5371         estimate D2E/DX2                !
 ! R21   R(20,21)                1.1118         estimate D2E/DX2                !
 ! R22   R(20,22)                1.1009         estimate D2E/DX2                !
 ! R23   R(20,23)                1.4124         estimate D2E/DX2                !
 ! R24   R(23,24)                0.9732         estimate D2E/DX2                !
 ! A1    A(2,1,18)             115.2323         estimate D2E/DX2                !
 ! A2    A(1,2,3)              105.9894         estimate D2E/DX2                !
 ! A3    A(1,2,4)              109.4995         estimate D2E/DX2                !
 ! A4    A(1,2,6)              112.3142         estimate D2E/DX2                !
 ! A5    A(3,2,4)              109.6046         estimate D2E/DX2                !
 ! A6    A(3,2,6)              111.7026         estimate D2E/DX2                !
 ! A7    A(4,2,6)              107.7116         estimate D2E/DX2                !
 ! A8    A(2,4,5)              109.2745         estimate D2E/DX2                !
 ! A9    A(2,6,7)              110.4454         estimate D2E/DX2                !
 ! A10   A(2,6,8)              108.8885         estimate D2E/DX2                !
 ! A11   A(2,6,10)             110.2823         estimate D2E/DX2                !
 ! A12   A(7,6,8)              107.3857         estimate D2E/DX2                !
 ! A13   A(7,6,10)             109.8224         estimate D2E/DX2                !
 ! A14   A(8,6,10)             109.9646         estimate D2E/DX2                !
 ! A15   A(6,8,9)              107.6116         estimate D2E/DX2                !
 ! A16   A(6,10,11)            108.8939         estimate D2E/DX2                !
 ! A17   A(6,10,12)            110.4734         estimate D2E/DX2                !
 ! A18   A(6,10,14)            110.0779         estimate D2E/DX2                !
 ! A19   A(11,10,12)           109.0117         estimate D2E/DX2                !
 ! A20   A(11,10,14)           109.3924         estimate D2E/DX2                !
 ! A21   A(12,10,14)           108.9703         estimate D2E/DX2                !
 ! A22   A(10,12,13)           107.8712         estimate D2E/DX2                !
 ! A23   A(10,14,15)           109.3198         estimate D2E/DX2                !
 ! A24   A(10,14,16)           109.3106         estimate D2E/DX2                !
 ! A25   A(10,14,18)           110.0886         estimate D2E/DX2                !
 ! A26   A(15,14,16)           108.7688         estimate D2E/DX2                !
 ! A27   A(15,14,18)           109.4827         estimate D2E/DX2                !
 ! A28   A(16,14,18)           109.8475         estimate D2E/DX2                !
 ! A29   A(14,16,17)           106.9903         estimate D2E/DX2                !
 ! A30   A(1,18,14)            108.4473         estimate D2E/DX2                !
 ! A31   A(1,18,19)            108.287          estimate D2E/DX2                !
 ! A32   A(1,18,20)            107.3627         estimate D2E/DX2                !
 ! A33   A(14,18,19)           109.3336         estimate D2E/DX2                !
 ! A34   A(14,18,20)           113.3964         estimate D2E/DX2                !
 ! A35   A(19,18,20)           109.8687         estimate D2E/DX2                !
 ! A36   A(18,20,21)           109.8148         estimate D2E/DX2                !
 ! A37   A(18,20,22)           110.1976         estimate D2E/DX2                !
 ! A38   A(18,20,23)           110.4825         estimate D2E/DX2                !
 ! A39   A(21,20,22)           107.1897         estimate D2E/DX2                !
 ! A40   A(21,20,23)           110.7538         estimate D2E/DX2                !
 ! A41   A(22,20,23)           108.3363         estimate D2E/DX2                !
 ! A42   A(20,23,24)           108.9636         estimate D2E/DX2                !
 ! D1    D(18,1,2,3)          -178.5501         estimate D2E/DX2                !
 ! D2    D(18,1,2,4)            63.3029         estimate D2E/DX2                !
 ! D3    D(18,1,2,6)           -56.3137         estimate D2E/DX2                !
 ! D4    D(2,1,18,14)           59.2321         estimate D2E/DX2                !
 ! D5    D(2,1,18,19)          -59.3097         estimate D2E/DX2                !
 ! D6    D(2,1,18,20)         -177.8879         estimate D2E/DX2                !
 ! D7    D(1,2,4,5)             48.4661         estimate D2E/DX2                !
 ! D8    D(3,2,4,5)            -67.4036         estimate D2E/DX2                !
 ! D9    D(6,2,4,5)            170.8724         estimate D2E/DX2                !
 ! D10   D(1,2,6,7)            -70.4986         estimate D2E/DX2                !
 ! D11   D(1,2,6,8)            171.8174         estimate D2E/DX2                !
 ! D12   D(1,2,6,10)            51.0754         estimate D2E/DX2                !
 ! D13   D(3,2,6,7)             48.4367         estimate D2E/DX2                !
 ! D14   D(3,2,6,8)            -69.2473         estimate D2E/DX2                !
 ! D15   D(3,2,6,10)           170.0107         estimate D2E/DX2                !
 ! D16   D(4,2,6,7)            168.8479         estimate D2E/DX2                !
 ! D17   D(4,2,6,8)             51.1639         estimate D2E/DX2                !
 ! D18   D(4,2,6,10)           -69.5781         estimate D2E/DX2                !
 ! D19   D(2,6,8,9)            -38.6708         estimate D2E/DX2                !
 ! D20   D(7,6,8,9)           -158.2746         estimate D2E/DX2                !
 ! D21   D(10,6,8,9)            82.2663         estimate D2E/DX2                !
 ! D22   D(2,6,10,11)           67.6559         estimate D2E/DX2                !
 ! D23   D(2,6,10,12)         -172.6537         estimate D2E/DX2                !
 ! D24   D(2,6,10,14)          -52.2616         estimate D2E/DX2                !
 ! D25   D(7,6,10,11)         -170.4012         estimate D2E/DX2                !
 ! D26   D(7,6,10,12)          -50.7108         estimate D2E/DX2                !
 ! D27   D(7,6,10,14)           69.6813         estimate D2E/DX2                !
 ! D28   D(8,6,10,11)          -52.4398         estimate D2E/DX2                !
 ! D29   D(8,6,10,12)           67.2506         estimate D2E/DX2                !
 ! D30   D(8,6,10,14)         -172.3573         estimate D2E/DX2                !
 ! D31   D(6,10,12,13)         -43.5022         estimate D2E/DX2                !
 ! D32   D(11,10,12,13)         76.1172         estimate D2E/DX2                !
 ! D33   D(14,10,12,13)       -164.5551         estimate D2E/DX2                !
 ! D34   D(6,10,14,15)         -63.2549         estimate D2E/DX2                !
 ! D35   D(6,10,14,16)         177.7902         estimate D2E/DX2                !
 ! D36   D(6,10,14,18)          57.0456         estimate D2E/DX2                !
 ! D37   D(11,10,14,15)        177.1302         estimate D2E/DX2                !
 ! D38   D(11,10,14,16)         58.1753         estimate D2E/DX2                !
 ! D39   D(11,10,14,18)        -62.5694         estimate D2E/DX2                !
 ! D40   D(12,10,14,15)         58.0396         estimate D2E/DX2                !
 ! D41   D(12,10,14,16)        -60.9153         estimate D2E/DX2                !
 ! D42   D(12,10,14,18)        178.3401         estimate D2E/DX2                !
 ! D43   D(10,14,16,17)         42.8439         estimate D2E/DX2                !
 ! D44   D(15,14,16,17)        -76.4523         estimate D2E/DX2                !
 ! D45   D(18,14,16,17)        163.7354         estimate D2E/DX2                !
 ! D46   D(10,14,18,1)         -58.5251         estimate D2E/DX2                !
 ! D47   D(10,14,18,19)         59.352          estimate D2E/DX2                !
 ! D48   D(10,14,18,20)       -177.6748         estimate D2E/DX2                !
 ! D49   D(15,14,18,1)          61.677          estimate D2E/DX2                !
 ! D50   D(15,14,18,19)        179.5541         estimate D2E/DX2                !
 ! D51   D(15,14,18,20)        -57.4727         estimate D2E/DX2                !
 ! D52   D(16,14,18,1)        -178.9466         estimate D2E/DX2                !
 ! D53   D(16,14,18,19)        -61.0695         estimate D2E/DX2                !
 ! D54   D(16,14,18,20)         61.9037         estimate D2E/DX2                !
 ! D55   D(1,18,20,21)         -66.1392         estimate D2E/DX2                !
 ! D56   D(1,18,20,22)          51.7181         estimate D2E/DX2                !
 ! D57   D(1,18,20,23)         171.404          estimate D2E/DX2                !
 ! D58   D(14,18,20,21)         53.6308         estimate D2E/DX2                !
 ! D59   D(14,18,20,22)        171.4881         estimate D2E/DX2                !
 ! D60   D(14,18,20,23)        -68.826          estimate D2E/DX2                !
 ! D61   D(19,18,20,21)        176.3086         estimate D2E/DX2                !
 ! D62   D(19,18,20,22)        -65.8341         estimate D2E/DX2                !
 ! D63   D(19,18,20,23)         53.8518         estimate D2E/DX2                !
 ! D64   D(18,20,23,24)         42.6488         estimate D2E/DX2                !
 ! D65   D(21,20,23,24)        -79.2564         estimate D2E/DX2                !
 ! D66   D(22,20,23,24)        163.4507         estimate D2E/DX2                !
 --------------------------------------------------------------------------------
 Trust Radius=3.00D-01 FncErr=1.00D-07 GrdErr=1.00D-07 EigMax=2.50D+02 EigMin=1.00D-04
 Number of steps in this run=    142 maximum allowed number of steps=    144.
 GradGradGradGradGradGradGradGradGradGradGradGradGradGradGradGradGradGrad

                          Input orientation:                          
 ---------------------------------------------------------------------
 Center     Atomic      Atomic             Coordinates (Angstroms)
 Number     Number       Type             X           Y           Z
 ---------------------------------------------------------------------
      1          8           0        0.308905    1.371049   -0.011423
      2          6           0        1.294781    0.446750    0.464853
      3          1           0        1.876033    0.992544    1.245803
      4          8           0        2.161514    0.079724   -0.608163
      5          1           0        2.457863    0.879778   -1.068024
      6          6           0        0.664023   -0.847281    1.022778
      7          1           0        0.143597   -0.643221    1.975256
      8          8           0        1.706905   -1.790216    1.298243
      9          1           0        2.366398   -1.714918    0.588465
     10          6           0       -0.331042   -1.444099   -0.001656
     11          1           0        0.237014   -1.804266   -0.887972
     12          8           0       -1.042766   -2.543661    0.574117
     13          1           0       -0.405203   -3.087947    1.062707
     14          6           0       -1.340133   -0.372032   -0.443351
     15          1           0       -1.943775   -0.049890    0.435380
     16          8           0       -2.220241   -0.926992   -1.428904
     17          1           0       -2.462949   -1.817161   -1.123842
     18          6           0       -0.596533    0.845610   -1.031199
     19          1           0        0.010316    0.520442   -1.901455
     20          6           0       -1.533738    1.990926   -1.446562
     21          1           0       -2.188012    2.271087   -0.592440
     22          1           0       -0.947653    2.883653   -1.713938
     23          8           0       -2.307055    1.615041   -2.567144
     24          1           0       -2.619394    0.701626   -2.443829
 ---------------------------------------------------------------------
                    Distance matrix (angstroms):
                    1          2          3          4          5
     1  O    0.000000
     2  C    1.432871   0.000000
     3  H    2.044449   1.116077   0.000000
     4  O    2.335761   1.427339   2.086128   0.000000
     5  H    2.444539   1.972304   2.388522   0.969217   0.000000
     6  C    2.473190   1.543908   2.214422   2.400372   3.251469
     7  H    2.833991   2.189653   2.491819   3.356887   4.115447
     8  O    3.696380   2.422478   2.788388   2.708824   3.645823
     9  H    3.757171   2.415875   2.828940   2.166711   3.079735
    10  C    2.886986   2.536975   3.516328   2.983743   3.783588
    11  H    3.294864   2.831268   3.880918   2.707658   3.488364
    12  O    4.182682   3.797186   4.634145   4.306663   5.164394
    13  H    4.641805   3.967551   4.678458   4.406130   5.336666
    14  C    2.438077   2.904825   3.880597   3.534512   4.047471
    15  H    2.700605   3.276548   4.041582   4.237827   4.743303
    16  O    3.699571   4.222424   5.255296   4.570216   5.027853
    17  H    4.368676   4.665810   5.686512   5.024913   5.611683
    18  C    1.461454   2.444244   3.364507   2.893504   3.054809
    19  H    2.094017   2.693454   3.689040   2.548429   2.610405
    20  C    2.416445   3.746800   4.457817   4.243877   4.160627
    21  H    2.717028   4.071354   4.640072   4.870390   4.872994
    22  H    2.601051   3.964106   4.506613   4.330320   4.003781
    23  O    3.665309   4.850890   5.694233   5.114970   5.049001
    24  H    3.865186   4.883253   5.822962   5.158829   5.263375
                    6          7          8          9         10
     6  C    0.000000
     7  H    1.104399   0.000000
     8  O    1.432693   2.053747   0.000000
     9  H    1.959465   2.830648   0.971795   0.000000
    10  C    1.547841   2.185147   2.441877   2.774485   0.000000
    11  H    2.179248   3.091088   2.634447   2.592706   1.112638
    12  O    2.447883   2.642408   2.941552   3.508478   1.430770
    13  H    2.483027   2.666573   2.490097   3.129199   1.959746
    14  C    2.528248   2.850379   3.785345   4.075090   1.537103
    15  H    2.789530   2.660899   4.135303   4.623131   2.176173
    16  O    3.786301   4.154102   4.858494   5.072264   2.423532
    17  H    3.914920   4.216234   4.822334   5.124943   2.437930
    18  C    2.945115   3.435576   4.204724   4.237756   2.524522
    19  H    3.293803   4.049786   4.296001   4.092390   2.754121
    20  C    4.356973   4.632604   5.686190   5.752015   3.915818
    21  H    4.524075   4.530194   5.936265   6.166476   4.195232
    22  H    4.899692   5.219178   6.161572   6.118076   4.694844
    23  O    5.270472   5.633723   6.530610   6.548867   4.454738
    24  H    5.019692   5.382476   6.239330   6.316060   3.975538
                   11         12         13         14         15
    11  H    0.000000
    12  O    2.079001   0.000000
    13  H    2.421865   0.970286   0.000000
    14  C    2.176321   2.416535   3.243224   0.000000
    15  H    3.095955   2.655176   3.462735   1.113700   0.000000
    16  O    2.664642   2.830576   3.764600   1.433138   2.078773
    17  H    2.710277   2.329761   3.260401   1.952481   2.413289
    18  C    2.781575   3.776681   4.460260   1.543100   2.183537
    19  H    2.546136   4.077520   4.688218   2.178598   3.099121
    20  C    4.225052   4.988655   5.776242   2.574390   2.806201
    21  H    4.751483   5.084707   5.885335   2.779785   2.550098
    22  H    4.905328   5.890669   6.607875   3.516805   3.770610
    23  O    4.580782   5.362905   6.237865   3.064946   3.452408
    24  H    4.106002   4.703790   5.617766   2.605986   3.051407
                   16         17         18         19         20
    16  O    0.000000
    17  H    0.971787   0.000000
    18  C    2.436537   3.253066   0.000000
    19  H    2.700695   3.490861   1.109660   0.000000
    20  C    2.997640   3.933079   1.537084   2.180219   0.000000
    21  H    3.305816   4.131797   2.181123   3.100149   1.111795
    22  H    4.027622   4.974132   2.177851   2.556880   1.100885
    23  O    2.786585   3.726585   2.424260   2.647923   1.412449
    24  H    1.960049   2.848004   2.471482   2.691166   1.958439
                   21         22         23         24
    21  H    0.000000
    22  H    1.780866   0.000000
    23  O    2.084232   2.045803   0.000000
    24  H    2.465145   2.844064   0.973185   0.000000
 Symmetry turned off by external request.
 Stoichiometry    C6H12O6
 Framework group  C1[X(C6H12O6)]
 Deg. of freedom    66
 Full point group                 C1      NOp   1
 Rotational constants (GHZ):           1.3628976           0.7349117           0.5290501
 Standard basis: STO-3G (5D, 7F)
    72 basis functions,   216 primitive gaussians,    72 cartesian basis functions
    48 alpha electrons       48 beta electrons
       nuclear repulsion energy       829.8183179979 Hartrees.
 NAtoms=   24 NActive=   24 NUniq=   24 SFac= 1.00D+00 NAtFMM=   60 NAOKFM=F Big=F
 Integral buffers will be    131072 words long.
 Raffenetti 1 integral format.
 Two-electron integral symmetry is turned off.
 External calculation of energy and first derivatives.
 Running external command "bash gausch.sh R"
         input file       "/tmp/Gau-3005062.EIn"
         output file      "/tmp/Gau-3005062.EOu"
         message file     "/tmp/Gau-3005062.EMs"
         fchk file        "/tmp/Gau-3005062.EFC"
         mat. el file     "/tmp/Gau-3005062.EUF"
Running schnet predictor...
Process ./best_model
 Recovered energy= -687.139160156     dipole=      0.000000000000      0.000000000000      0.000000000000
 Energy=    -687.139160     NIter=   0.
 Dipole moment=       0.000000       0.000000       0.000000
 -------------------------------------------------------------------
 Center     Atomic                   Forces (Hartrees/Bohr)
 Number     Number              X              Y              Z
 -------------------------------------------------------------------
      1        8          -0.001727114   -0.015338568    0.001057563
      2        6          -0.005882855    0.018430974   -0.010108974
      3        1          -0.010199646   -0.006417860   -0.009095091
      4        8          -0.005736547   -0.000990118    0.007295244
      5        1          -0.002181856   -0.004356380    0.006417277
      6        6           0.011940078   -0.004401380   -0.013180952
      7        1           0.003795833   -0.000159172   -0.007325657
      8        8          -0.006614696    0.005674124   -0.000970196
      9        1          -0.006242604   -0.000784167    0.003717394
     10        6           0.006939325    0.002539783    0.006124238
     11        1          -0.004602124    0.005216347    0.006571080
     12        8           0.005261164    0.008040532   -0.001399114
     13        1          -0.003430225    0.003652552   -0.005331072
     14        6          -0.003360675   -0.007922064    0.003430252
     15        1           0.007043268   -0.001359872   -0.006319076
     16        8           0.005563090   -0.001255069    0.006949040
     17        1           0.000731018    0.007295440   -0.002518380
     18        6           0.012252752   -0.000427085    0.007650674
     19        1          -0.007859403    0.002089422    0.004982006
     20        6          -0.003507930   -0.003773717    0.006246479
     21        1           0.006200509   -0.003387537   -0.004366972
     22        1          -0.001702969   -0.007392403   -0.000061202
     23        8           0.000877781   -0.003391604   -0.000256085
     24        1           0.002443823    0.008417818    0.000491530
 -------------------------------------------------------------------
 Cartesian Forces:  Max     0.018430974 RMS     0.006303495

 GradGradGradGradGradGradGradGradGradGradGradGradGradGradGradGradGradGrad
 Berny optimization.
 FormGI is forming the generalized inverse of G from B-inverse, IUseBI=4.
 Internal  Forces:  Max     0.020079782 RMS     0.005260581
 Search for a local minimum.
 Step number   1 out of a maximum of  142
 All quantities printed in internal units (Hartrees-Bohrs-Radians)
 Mixed Optimization -- RFO/linear search
 Second derivative matrix not updated -- first step.
 ITU=  0
     Eigenvalues ---    0.00275   0.00474   0.00560   0.01177   0.01253
     Eigenvalues ---    0.01259   0.01285   0.01330   0.01527   0.02800
     Eigenvalues ---    0.03064   0.04173   0.04552   0.04705   0.04799
     Eigenvalues ---    0.04974   0.05081   0.05140   0.05710   0.05784
     Eigenvalues ---    0.06509   0.06876   0.07042   0.07074   0.07985
     Eigenvalues ---    0.09318   0.10494   0.11118   0.11477   0.13847
     Eigenvalues ---    0.14494   0.16000   0.16000   0.16000   0.16000
     Eigenvalues ---    0.16000   0.16333   0.17144   0.18487   0.19376
     Eigenvalues ---    0.19711   0.21991   0.26460   0.27199   0.27994
     Eigenvalues ---    0.28220   0.28779   0.31965   0.32211   0.32322
     Eigenvalues ---    0.32411   0.32636   0.33200   0.33584   0.35570
     Eigenvalues ---    0.39185   0.40542   0.40605   0.40879   0.41374
     Eigenvalues ---    0.43618   0.52731   0.53012   0.53013   0.53319
     Eigenvalues ---    0.53537
 RFO step:  Lambda=-1.33649342D-02 EMin= 2.75392350D-03
 Linear search not attempted -- first point.
 Iteration  1 RMS(Cart)=  0.04103729 RMS(Int)=  0.00073379
 Iteration  2 RMS(Cart)=  0.00096558 RMS(Int)=  0.00018316
 Iteration  3 RMS(Cart)=  0.00000063 RMS(Int)=  0.00018316
 Variable       Old X    -DE/DX   Delta X   Delta X   Delta X     New X
                                 (Linear)    (Quad)   (Total)
    R1        2.70773  -0.02008   0.00000  -0.04851  -0.04850   2.65923
    R2        2.76175  -0.01701   0.00000  -0.04644  -0.04651   2.71524
    R3        2.10908  -0.01481   0.00000  -0.04449  -0.04449   2.06459
    R4        2.69728  -0.01374   0.00000  -0.03217  -0.03217   2.66511
    R5        2.91756  -0.01146   0.00000  -0.04024  -0.04020   2.87737
    R6        1.83155  -0.00731   0.00000  -0.01332  -0.01332   1.81824
    R7        2.08701  -0.00814   0.00000  -0.02356  -0.02356   2.06345
    R8        2.70740  -0.01205   0.00000  -0.02873  -0.02873   2.67867
    R9        2.92500  -0.01554   0.00000  -0.05104  -0.05098   2.87402
   R10        1.83643  -0.00701   0.00000  -0.01290  -0.01290   1.82352
   R11        2.10258  -0.00927   0.00000  -0.02755  -0.02755   2.07503
   R12        2.70376  -0.01261   0.00000  -0.02986  -0.02986   2.67390
   R13        2.90470  -0.01472   0.00000  -0.04821  -0.04822   2.85648
   R14        1.83357  -0.00699   0.00000  -0.01278  -0.01278   1.82079
   R15        2.10459  -0.00920   0.00000  -0.02741  -0.02741   2.07717
   R16        2.70824  -0.00925   0.00000  -0.02209  -0.02209   2.68615
   R17        2.91604  -0.01300   0.00000  -0.04242  -0.04246   2.87357
   R18        1.83641  -0.00766   0.00000  -0.01409  -0.01409   1.82233
   R19        2.09695  -0.00882   0.00000  -0.02595  -0.02595   2.07100
   R20        2.90467  -0.01028   0.00000  -0.03414  -0.03414   2.87052
   R21        2.10099  -0.00786   0.00000  -0.02328  -0.02328   2.07771
   R22        2.08037  -0.00689   0.00000  -0.01972  -0.01972   2.06065
   R23        2.66914  -0.00334   0.00000  -0.00744  -0.00744   2.66171
   R24        1.83905  -0.00862   0.00000  -0.01595  -0.01595   1.82311
    A1        2.01118  -0.00089   0.00000  -0.00589  -0.00593   2.00525
    A2        1.84986  -0.00236   0.00000  -0.01511  -0.01553   1.83433
    A3        1.91113   0.00687   0.00000   0.04972   0.04972   1.96084
    A4        1.96025   0.00176   0.00000  -0.00033  -0.00010   1.96016
    A5        1.91296   0.00285   0.00000   0.01689   0.01640   1.92936
    A6        1.94958  -0.00002   0.00000  -0.01041  -0.01053   1.93905
    A7        1.87992  -0.00860   0.00000  -0.03760  -0.03755   1.84237
    A8        1.90720  -0.00508   0.00000  -0.02929  -0.02929   1.87791
    A9        1.92764  -0.00168   0.00000  -0.02538  -0.02540   1.90223
   A10        1.90046   0.00509   0.00000   0.04801   0.04791   1.94837
   A11        1.92479  -0.00115   0.00000  -0.00072  -0.00120   1.92359
   A12        1.87423  -0.00167   0.00000  -0.01733  -0.01692   1.85731
   A13        1.91676   0.00019   0.00000  -0.01123  -0.01148   1.90528
   A14        1.91924  -0.00074   0.00000   0.00686   0.00616   1.92540
   A15        1.87818  -0.00230   0.00000  -0.01324  -0.01324   1.86493
   A16        1.90056  -0.00037   0.00000   0.00680   0.00668   1.90723
   A17        1.92813   0.00356   0.00000   0.01671   0.01643   1.94456
   A18        1.92122  -0.00041   0.00000  -0.00182  -0.00166   1.91956
   A19        1.90261   0.00089   0.00000   0.01388   0.01358   1.91620
   A20        1.90926   0.00108   0.00000  -0.00388  -0.00390   1.90536
   A21        1.90189  -0.00473   0.00000  -0.03158  -0.03150   1.87039
   A22        1.88271  -0.00212   0.00000  -0.01224  -0.01224   1.87046
   A23        1.90799  -0.00038   0.00000   0.00168   0.00142   1.90941
   A24        1.90783   0.00359   0.00000   0.02064   0.02043   1.92826
   A25        1.92141  -0.00172   0.00000  -0.01602  -0.01611   1.90529
   A26        1.89837   0.00079   0.00000   0.01812   0.01790   1.91627
   A27        1.91083   0.00050   0.00000  -0.00491  -0.00480   1.90604
   A28        1.91720  -0.00274   0.00000  -0.01898  -0.01884   1.89836
   A29        1.86733   0.00133   0.00000   0.00770   0.00770   1.87503
   A30        1.89276   0.00169   0.00000   0.00108   0.00088   1.89364
   A31        1.88996   0.00207   0.00000   0.03191   0.03186   1.92183
   A32        1.87383  -0.00321   0.00000  -0.02107  -0.02107   1.85277
   A33        1.90823  -0.00072   0.00000   0.00102   0.00085   1.90908
   A34        1.97914   0.00055   0.00000  -0.00376  -0.00378   1.97536
   A35        1.91757  -0.00028   0.00000  -0.00740  -0.00730   1.91027
   A36        1.91663  -0.00308   0.00000  -0.01018  -0.01068   1.90595
   A37        1.92331  -0.00393   0.00000  -0.03209  -0.03211   1.89120
   A38        1.92828   0.00635   0.00000   0.02718   0.02708   1.95536
   A39        1.87081   0.00251   0.00000   0.01268   0.01250   1.88331
   A40        1.93302   0.00054   0.00000   0.02283   0.02269   1.95571
   A41        1.89082  -0.00257   0.00000  -0.02150  -0.02126   1.86956
   A42        1.90177  -0.00227   0.00000  -0.01308  -0.01308   1.88869
    D1       -3.11629   0.00083   0.00000   0.02725   0.02710  -3.08919
    D2        1.10484  -0.00476   0.00000  -0.00984  -0.00977   1.09508
    D3       -0.98286   0.00029   0.00000   0.00413   0.00400  -0.97886
    D4        1.03379   0.00056   0.00000   0.01446   0.01441   1.04820
    D5       -1.03515  -0.00069   0.00000  -0.00521  -0.00549  -1.04064
    D6       -3.10473   0.00029   0.00000  -0.00206  -0.00199  -3.10672
    D7        0.84589   0.00171   0.00000   0.04676   0.04737   0.89327
    D8       -1.17641  -0.00097   0.00000   0.02717   0.02668  -1.14973
    D9        2.98229   0.00265   0.00000   0.05295   0.05282   3.03511
   D10       -1.23043   0.00194   0.00000   0.02804   0.02791  -1.20252
   D11        2.99878   0.00189   0.00000   0.03505   0.03533   3.03411
   D12        0.89143   0.00029   0.00000  -0.00337  -0.00340   0.88803
   D13        0.84538   0.00011   0.00000   0.00133   0.00103   0.84641
   D14       -1.20859   0.00007   0.00000   0.00833   0.00845  -1.20014
   D15        2.96725  -0.00153   0.00000  -0.03008  -0.03028   2.93697
   D16        2.94695  -0.00196   0.00000  -0.00852  -0.00857   2.93838
   D17        0.89298  -0.00200   0.00000  -0.00151  -0.00115   0.89183
   D18       -1.21437  -0.00360   0.00000  -0.03993  -0.03988  -1.25425
   D19       -0.67493  -0.00144   0.00000  -0.05242  -0.05281  -0.72775
   D20       -2.76241  -0.00130   0.00000  -0.03884  -0.03882  -2.80123
   D21        1.43582  -0.00012   0.00000  -0.01889  -0.01852   1.41730
   D22        1.18082   0.00093   0.00000  -0.01184  -0.01187   1.16894
   D23       -3.01338   0.00395   0.00000   0.01959   0.01965  -2.99373
   D24       -0.91214   0.00008   0.00000  -0.01019  -0.01021  -0.92235
   D25       -2.97406  -0.00180   0.00000  -0.05148  -0.05147  -3.02553
   D26       -0.88507   0.00121   0.00000  -0.02005  -0.01995  -0.90502
   D27        1.21617  -0.00266   0.00000  -0.04984  -0.04981   1.16636
   D28       -0.91525  -0.00418   0.00000  -0.07531  -0.07527  -0.99052
   D29        1.17374  -0.00116   0.00000  -0.04388  -0.04375   1.12999
   D30       -3.00820  -0.00503   0.00000  -0.07367  -0.07361  -3.08181
   D31       -0.75926  -0.00226   0.00000  -0.05381  -0.05396  -0.81321
   D32        1.32850   0.00000   0.00000  -0.02660  -0.02642   1.30208
   D33       -2.87203  -0.00094   0.00000  -0.04171  -0.04175  -2.91378
   D34       -1.10401   0.00098   0.00000   0.03391   0.03394  -1.07007
   D35        3.10302  -0.00188   0.00000  -0.00137  -0.00148   3.10155
   D36        0.99563   0.00030   0.00000   0.01900   0.01910   1.01473
   D37        3.09150   0.00101   0.00000   0.02908   0.02918   3.12068
   D38        1.01535  -0.00185   0.00000  -0.00620  -0.00624   1.00911
   D39       -1.09204   0.00033   0.00000   0.01417   0.01434  -1.07770
   D40        1.01298   0.00210   0.00000   0.03330   0.03335   1.04634
   D41       -1.06317  -0.00076   0.00000  -0.00199  -0.00206  -1.06523
   D42        3.11262   0.00142   0.00000   0.01838   0.01852   3.13114
   D43        0.74777   0.00180   0.00000   0.03663   0.03692   0.78469
   D44       -1.33434  -0.00031   0.00000   0.01176   0.01155  -1.32279
   D45        2.85772   0.00023   0.00000   0.01804   0.01796   2.87568
   D46       -1.02146  -0.00095   0.00000  -0.02321  -0.02313  -1.04458
   D47        1.03589   0.00210   0.00000   0.01629   0.01633   1.05221
   D48       -3.10101   0.00158   0.00000   0.00484   0.00491  -3.09610
   D49        1.07647  -0.00217   0.00000  -0.03419  -0.03416   1.04230
   D50        3.13381   0.00088   0.00000   0.00531   0.00529   3.13910
   D51       -1.00309   0.00036   0.00000  -0.00614  -0.00613  -1.00922
   D52       -3.12321  -0.00256   0.00000  -0.02656  -0.02659   3.13339
   D53       -1.06586   0.00049   0.00000   0.01293   0.01286  -1.05300
   D54        1.08042  -0.00003   0.00000   0.00148   0.00145   1.08187
   D55       -1.15435   0.00121   0.00000   0.01709   0.01697  -1.13738
   D56        0.90265   0.00005   0.00000   0.00711   0.00720   0.90985
   D57        2.99156  -0.00162   0.00000  -0.02284  -0.02292   2.96864
   D58        0.93603   0.00148   0.00000   0.00190   0.00187   0.93790
   D59        2.99303   0.00032   0.00000  -0.00809  -0.00791   2.98513
   D60       -1.20124  -0.00135   0.00000  -0.03804  -0.03802  -1.23926
   D61        3.07717   0.00072   0.00000  -0.00495  -0.00506   3.07211
   D62       -1.14902  -0.00044   0.00000  -0.01494  -0.01483  -1.16385
   D63        0.93989  -0.00211   0.00000  -0.04489  -0.04495   0.89494
   D64        0.74436   0.00176   0.00000   0.04134   0.04165   0.78602
   D65       -1.38329   0.00098   0.00000   0.02034   0.01997  -1.36332
   D66        2.85275  -0.00083   0.00000   0.00485   0.00490   2.85766
         Item               Value     Threshold  Converged?
 Maximum Force            0.020080     0.000450     NO 
 RMS     Force            0.005261     0.000300     NO 
 Maximum Displacement     0.132274     0.001800     NO 
 RMS     Displacement     0.041212     0.001200     NO 
 Predicted change in Energy=-7.339183D-03
 GradGradGradGradGradGradGradGradGradGradGradGradGradGradGradGradGradGrad

                          Input orientation:                          
 ---------------------------------------------------------------------
 Center     Atomic      Atomic             Coordinates (Angstroms)
 Number     Number       Type             X           Y           Z
 ---------------------------------------------------------------------
      1          8           0        0.289479    1.355250   -0.032670
      2          6           0        1.271653    0.462502    0.434834
      3          1           0        1.809208    1.011889    1.211264
      4          8           0        2.155820    0.055523   -0.585754
      5          1           0        2.481262    0.848890   -1.022134
      6          6           0        0.669048   -0.821263    0.989122
      7          1           0        0.136454   -0.593083    1.914646
      8          8           0        1.670800   -1.765924    1.325854
      9          1           0        2.327408   -1.741327    0.619156
     10          6           0       -0.305654   -1.419789   -0.013252
     11          1           0        0.247840   -1.759272   -0.898764
     12          8           0       -1.023339   -2.502724    0.547387
     13          1           0       -0.383563   -3.065458    0.997263
     14          6           0       -1.320640   -0.380351   -0.430701
     15          1           0       -1.891704   -0.053401    0.449761
     16          8           0       -2.205208   -0.913127   -1.407535
     17          1           0       -2.469434   -1.791400   -1.109611
     18          6           0       -0.594536    0.814725   -1.028096
     19          1           0       -0.022054    0.491383   -1.904890
     20          6           0       -1.528588    1.945720   -1.422817
     21          1           0       -2.151256    2.218740   -0.558763
     22          1           0       -0.924091    2.813657   -1.688052
     23          8           0       -2.304720    1.620263   -2.552246
     24          1           0       -2.645329    0.725122   -2.436304
 ---------------------------------------------------------------------
                    Distance matrix (angstroms):
                    1          2          3          4          5
     1  O    0.000000
     2  C    1.407205   0.000000
     3  H    1.993701   1.092536   0.000000
     4  O    2.340603   1.410313   2.064957   0.000000
     5  H    2.457510   1.932668   2.338010   0.962169   0.000000
     6  C    2.434202   1.522636   2.170198   2.336553   3.180988
     7  H    2.758887   2.143077   2.422558   3.278800   4.025182
     8  O    3.673603   2.432924   2.783619   2.684616   3.606543
     9  H    3.763883   2.450603   2.863445   2.170235   3.070297
    10  C    2.838204   2.496337   3.447483   2.926288   3.732512
    11  H    3.232971   2.786208   3.816991   2.651764   3.435973
    12  O    4.116299   3.751296   4.562517   4.235056   5.096954
    13  H    4.588725   3.937329   4.634522   4.323764   5.254265
    14  C    2.400671   2.859988   3.798727   3.507108   4.039218
    15  H    2.640946   3.205184   3.925745   4.179307   4.701429
    16  O    3.641325   4.168362   5.165203   4.542266   5.021577
    17  H    4.321205   4.632614   5.617087   5.007847   5.611433
    18  C    1.436844   2.397266   3.291137   2.887302   3.075993
    19  H    2.085312   2.673727   3.651692   2.583260   2.678369
    20  C    2.363585   3.673167   4.353309   4.224735   4.176420
    21  H    2.641889   3.973401   4.502750   4.819869   4.852981
    22  H    2.517934   3.854331   4.373021   4.278810   3.987504
    23  O    3.626067   4.801406   5.608789   5.119758   5.083491
    24  H    3.845467   4.863655   5.764536   5.188827   5.319505
                    6          7          8          9         10
     6  C    0.000000
     7  H    1.091933   0.000000
     8  O    1.417491   2.019022   0.000000
     9  H    1.932240   2.792318   0.964967   0.000000
    10  C    1.520865   2.143757   2.412340   2.726966   0.000000
    11  H    2.149741   3.047570   2.640793   2.574686   1.098060
    12  O    2.426234   2.619399   2.899530   3.436915   1.414969
    13  H    2.478803   2.687871   2.452991   3.040666   1.932728
    14  C    2.483779   2.769302   3.735507   4.032705   1.511585
    15  H    2.727265   2.559408   4.048668   4.547383   2.144050
    16  O    3.743494   4.077094   4.818933   5.033687   2.410194
    17  H    3.898194   4.168063   4.803507   5.099102   2.453985
    18  C    2.888299   3.343053   4.163241   4.217179   2.471116
    19  H    3.252071   3.973669   4.289393   4.108013   2.703942
    20  C    4.278230   4.511823   5.618504   5.712502   3.848258
    21  H    4.426249   4.388362   5.834161   6.093279   4.116154
    22  H    4.787274   5.070509   6.065447   6.053373   4.594505
    23  O    5.229304   5.550797   6.504666   6.543293   4.436740
    24  H    5.010982   5.329798   6.244046   6.336191   3.993231
                   11         12         13         14         15
    11  H    0.000000
    12  O    2.063969   0.000000
    13  H    2.387405   0.963520   0.000000
    14  C    2.140242   2.355740   3.182294   0.000000
    15  H    3.050601   2.600533   3.412731   1.099193   0.000000
    16  O    2.644287   2.783048   3.705938   1.421448   2.070498
    17  H    2.725631   2.311453   3.226918   1.942088   2.405422
    18  C    2.711418   3.697498   4.382055   1.520630   2.149500
    19  H    2.480037   3.997613   4.604812   2.149297   3.055611
    20  C    4.142137   4.891384   5.681529   2.537350   2.763130
    21  H    4.657880   4.978754   5.785214   2.731593   2.499422
    22  H    4.786238   5.768097   6.485913   3.455411   3.704934
    23  O    4.546517   5.314949   6.184321   3.077632   3.461759
    24  H    4.111772   4.685323   5.592268   2.645621   3.082761
                   16         17         18         19         20
    16  O    0.000000
    17  H    0.964333   0.000000
    18  C    2.392428   3.211507   0.000000
    19  H    2.643136   3.439947   1.095925   0.000000
    20  C    2.937865   3.866440   1.519016   2.148752   0.000000
    21  H    3.245291   4.060283   2.148234   3.054394   1.099475
    22  H    3.950805   4.891751   2.130698   2.500729   1.090449
    23  O    2.781785   3.707798   2.428302   2.627547   1.408514
    24  H    1.983918   2.850252   2.489343   2.686746   1.940135
                   21         22         23         24
    21  H    0.000000
    22  H    1.770636   0.000000
    23  O    2.087032   2.019197   0.000000
    24  H    2.449523   2.807938   0.964746   0.000000
 Symmetry turned off by external request.
 Stoichiometry    C6H12O6
 Framework group  C1[X(C6H12O6)]
 Deg. of freedom    66
 Full point group                 C1      NOp   1
 Rotational constants (GHZ):           1.4062298           0.7478025           0.5402636
 Standard basis: STO-3G (5D, 7F)
    72 basis functions,   216 primitive gaussians,    72 cartesian basis functions
    48 alpha electrons       48 beta electrons
       nuclear repulsion energy       839.8144501506 Hartrees.
 NAtoms=   24 NActive=   24 NUniq=   24 SFac= 1.00D+00 NAtFMM=   60 NAOKFM=F Big=F
 Integral buffers will be    131072 words long.
 Raffenetti 1 integral format.
 Two-electron integral symmetry is turned off.
 External calculation of energy and first derivatives.
 Running external command "bash gausch.sh R"
         input file       "/tmp/Gau-3005062.EIn"
         output file      "/tmp/Gau-3005062.EOu"
         message file     "/tmp/Gau-3005062.EMs"
         fchk file        "/tmp/Gau-3005062.EFC"
         mat. el file     "/tmp/Gau-3005062.EUF"
Running schnet predictor...
Process ./best_model
 Recovered energy= -687.146118164     dipole=      0.000000000000      0.000000000000      0.000000000000
 Energy=    -687.146118     NIter=   0.
 Dipole moment=       0.000000       0.000000       0.000000
 -------------------------------------------------------------------
 Center     Atomic                   Forces (Hartrees/Bohr)
 Number     Number              X              Y              Z
 -------------------------------------------------------------------
      1        8           0.001611140   -0.006205050   -0.001441706
      2        6          -0.000912118    0.004113598   -0.001298823
      3        1           0.000047724    0.000146540    0.000321363
      4        8          -0.002320812    0.003311876   -0.001493294
      5        1           0.002784310   -0.000540838   -0.000330223
      6        6           0.001402819   -0.004599471    0.001917220
      7        1          -0.001434208    0.000592323    0.000243020
      8        8          -0.001723435    0.003019741   -0.000141382
      9        1          -0.000036957   -0.001164686    0.000006034
     10        6          -0.001666695   -0.000606588    0.001923108
     11        1           0.000325894    0.000850220   -0.000762210
     12        8           0.001893905   -0.000177543    0.001511988
     13        1          -0.000737944   -0.001706567   -0.000535459
     14        6          -0.001828341   -0.002398837   -0.003580482
     15        1           0.000766026    0.000110791    0.000476038
     16        8           0.001912568    0.000046576    0.002088444
     17        1          -0.000789445    0.000605677   -0.000279042
     18        6           0.002912500    0.003017192    0.003845105
     19        1          -0.000615590   -0.000407004   -0.000515069
     20        6          -0.001614252    0.001072307   -0.001923001
     21        1           0.000009214   -0.000811517   -0.000386861
     22        1           0.000271945    0.000684457    0.000324889
     23        8           0.000374194    0.000007969   -0.000231304
     24        1          -0.000632428    0.001038833    0.000261645
 -------------------------------------------------------------------
 Cartesian Forces:  Max     0.006205050 RMS     0.001770838

 GradGradGradGradGradGradGradGradGradGradGradGradGradGradGradGradGradGrad
 Berny optimization.
 Using GEDIIS/GDIIS optimizer.
 FormGI is forming the generalized inverse of G from B-inverse, IUseBI=4.
 Internal  Forces:  Max     0.004545805 RMS     0.001078587
 Search for a local minimum.
 Step number   2 out of a maximum of  142
 All quantities printed in internal units (Hartrees-Bohrs-Radians)
 Mixed Optimization -- RFO/linear search
 Update second derivatives using D2CorX and points    1    2
 DE= -6.96D-03 DEPred=-7.34D-03 R= 9.48D-01
 TightC=F SS=  1.41D+00  RLast= 3.11D-01 DXNew= 5.0454D-01 9.3433D-01
 Trust test= 9.48D-01 RLast= 3.11D-01 DXMaxT set to 5.05D-01
 ITU=  1  0
 Use linear search instead of GDIIS.
     Eigenvalues ---    0.00275   0.00478   0.00577   0.01179   0.01250
     Eigenvalues ---    0.01258   0.01278   0.01318   0.01523   0.02778
     Eigenvalues ---    0.03105   0.04255   0.04500   0.04716   0.04839
     Eigenvalues ---    0.04979   0.05118   0.05284   0.05742   0.05942
     Eigenvalues ---    0.06476   0.06808   0.07014   0.07087   0.07928
     Eigenvalues ---    0.09033   0.10506   0.10959   0.11536   0.13943
     Eigenvalues ---    0.14648   0.15881   0.16000   0.16000   0.16000
     Eigenvalues ---    0.16046   0.16663   0.17164   0.18445   0.19393
     Eigenvalues ---    0.20206   0.21705   0.26422   0.27201   0.27950
     Eigenvalues ---    0.28619   0.30164   0.32089   0.32218   0.32338
     Eigenvalues ---    0.32498   0.32746   0.33430   0.33904   0.34552
     Eigenvalues ---    0.37991   0.40261   0.40570   0.41074   0.41935
     Eigenvalues ---    0.43619   0.52635   0.52975   0.53018   0.53342
     Eigenvalues ---    0.53640
 RFO step:  Lambda=-1.46164993D-03 EMin= 2.75164285D-03
 Quartic linear search produced a step of  0.01346.
 Iteration  1 RMS(Cart)=  0.03471333 RMS(Int)=  0.00067169
 Iteration  2 RMS(Cart)=  0.00077479 RMS(Int)=  0.00003227
 Iteration  3 RMS(Cart)=  0.00000048 RMS(Int)=  0.00003227
 Variable       Old X    -DE/DX   Delta X   Delta X   Delta X     New X
                                 (Linear)    (Quad)   (Total)
    R1        2.65923  -0.00455  -0.00065  -0.01386  -0.01451   2.64473
    R2        2.71524  -0.00270  -0.00063  -0.00814  -0.00877   2.70647
    R3        2.06459   0.00033  -0.00060  -0.00124  -0.00184   2.06276
    R4        2.66511   0.00081  -0.00043   0.00033  -0.00011   2.66500
    R5        2.87737   0.00388  -0.00054   0.01032   0.00980   2.88716
    R6        1.81824   0.00065  -0.00018   0.00053   0.00035   1.81859
    R7        2.06345   0.00103  -0.00032   0.00191   0.00160   2.06505
    R8        2.67867  -0.00251  -0.00039  -0.00768  -0.00807   2.67060
    R9        2.87402   0.00032  -0.00069  -0.00353  -0.00422   2.86980
   R10        1.82352  -0.00006  -0.00017  -0.00077  -0.00095   1.82258
   R11        2.07503   0.00052  -0.00037   0.00020  -0.00017   2.07486
   R12        2.67390   0.00124  -0.00040   0.00153   0.00113   2.67503
   R13        2.85648   0.00122  -0.00065   0.00219   0.00153   2.85801
   R14        1.82079   0.00026  -0.00017  -0.00017  -0.00034   1.82045
   R15        2.07717   0.00002  -0.00037  -0.00134  -0.00171   2.07546
   R16        2.68615  -0.00219  -0.00030  -0.00654  -0.00684   2.67931
   R17        2.87357   0.00237  -0.00057   0.00764   0.00706   2.88063
   R18        1.82233  -0.00042  -0.00019  -0.00152  -0.00171   1.82062
   R19        2.07100   0.00021  -0.00035  -0.00067  -0.00102   2.06998
   R20        2.87052   0.00297  -0.00046   0.00862   0.00816   2.87868
   R21        2.07771  -0.00051  -0.00031  -0.00276  -0.00308   2.07463
   R22        2.06065   0.00062  -0.00027   0.00084   0.00057   2.06123
   R23        2.66171  -0.00012  -0.00010  -0.00067  -0.00077   2.66094
   R24        1.82311  -0.00071  -0.00021  -0.00217  -0.00238   1.82072
    A1        2.00525   0.00257  -0.00008   0.01392   0.01383   2.01908
    A2        1.83433   0.00066  -0.00021   0.00111   0.00084   1.83517
    A3        1.96084  -0.00128   0.00067  -0.00175  -0.00101   1.95983
    A4        1.96016  -0.00066  -0.00000  -0.00921  -0.00927   1.95088
    A5        1.92936  -0.00044   0.00022   0.00142   0.00165   1.93100
    A6        1.93905  -0.00073  -0.00014  -0.00613  -0.00628   1.93277
    A7        1.84237   0.00234  -0.00051   0.01406   0.01355   1.85592
    A8        1.87791   0.00371  -0.00039   0.02171   0.02132   1.89923
    A9        1.90223  -0.00007  -0.00034  -0.00695  -0.00733   1.89490
   A10        1.94837   0.00008   0.00064   0.01026   0.01092   1.95930
   A11        1.92359   0.00019  -0.00002  -0.00244  -0.00263   1.92095
   A12        1.85731   0.00005  -0.00023   0.00083   0.00064   1.85795
   A13        1.90528  -0.00049  -0.00015  -0.00948  -0.00965   1.89563
   A14        1.92540   0.00021   0.00008   0.00723   0.00729   1.93269
   A15        1.86493   0.00146  -0.00018   0.00848   0.00831   1.87324
   A16        1.90723   0.00059   0.00009  -0.00044  -0.00046   1.90677
   A17        1.94456  -0.00010   0.00022   0.00407   0.00435   1.94890
   A18        1.91956  -0.00130  -0.00002  -0.00851  -0.00861   1.91095
   A19        1.91620  -0.00025   0.00018   0.00338   0.00359   1.91978
   A20        1.90536  -0.00033  -0.00005  -0.01016  -0.01025   1.89510
   A21        1.87039   0.00138  -0.00042   0.01147   0.01109   1.88148
   A22        1.87046   0.00265  -0.00016   0.01596   0.01579   1.88626
   A23        1.90941  -0.00084   0.00002  -0.00763  -0.00761   1.90180
   A24        1.92826   0.00058   0.00027   0.00744   0.00771   1.93598
   A25        1.90529   0.00061  -0.00022   0.00123   0.00090   1.90619
   A26        1.91627   0.00025   0.00024   0.00350   0.00374   1.92001
   A27        1.90604  -0.00038  -0.00006  -0.00695  -0.00704   1.89900
   A28        1.89836  -0.00023  -0.00025   0.00231   0.00209   1.90046
   A29        1.87503   0.00111   0.00010   0.00733   0.00743   1.88246
   A30        1.89364  -0.00068   0.00001   0.00230   0.00222   1.89586
   A31        1.92183   0.00039   0.00043   0.00332   0.00377   1.92560
   A32        1.85277  -0.00025  -0.00028  -0.00356  -0.00384   1.84893
   A33        1.90908  -0.00029   0.00001  -0.00573  -0.00570   1.90338
   A34        1.97536   0.00144  -0.00005   0.00927   0.00926   1.98463
   A35        1.91027  -0.00061  -0.00010  -0.00534  -0.00544   1.90483
   A36        1.90595  -0.00077  -0.00014  -0.00466  -0.00483   1.90112
   A37        1.89120  -0.00072  -0.00043  -0.00485  -0.00529   1.88591
   A38        1.95536   0.00253   0.00036   0.01349   0.01386   1.96922
   A39        1.88331   0.00034   0.00017  -0.00020  -0.00006   1.88326
   A40        1.95571  -0.00087   0.00031  -0.00266  -0.00235   1.95336
   A41        1.86956  -0.00059  -0.00029  -0.00163  -0.00190   1.86766
   A42        1.88869   0.00023  -0.00018   0.00079   0.00061   1.88931
    D1       -3.08919   0.00061   0.00036   0.01308   0.01349  -3.07570
    D2        1.09508   0.00144  -0.00013   0.01161   0.01151   1.10659
    D3       -0.97886  -0.00022   0.00005   0.00117   0.00127  -0.97759
    D4        1.04820   0.00005   0.00019  -0.01547  -0.01530   1.03290
    D5       -1.04064   0.00058  -0.00007  -0.01186  -0.01195  -1.05259
    D6       -3.10672   0.00125  -0.00003  -0.00523  -0.00527  -3.11198
    D7        0.89327   0.00101   0.00064   0.07719   0.07784   0.97111
    D8       -1.14973   0.00127   0.00036   0.07597   0.07635  -1.07338
    D9        3.03511   0.00099   0.00071   0.07417   0.07484   3.10995
   D10       -1.20252   0.00019   0.00038   0.03516   0.03551  -1.16701
   D11        3.03411   0.00014   0.00048   0.03240   0.03287   3.06699
   D12        0.88803  -0.00033  -0.00005   0.01774   0.01769   0.90573
   D13        0.84641   0.00012   0.00001   0.02654   0.02657   0.87298
   D14       -1.20014   0.00006   0.00011   0.02379   0.02393  -1.17621
   D15        2.93697  -0.00040  -0.00041   0.00912   0.00875   2.94572
   D16        2.93838   0.00061  -0.00012   0.03343   0.03331   2.97169
   D17        0.89183   0.00055  -0.00002   0.03067   0.03068   0.92251
   D18       -1.25425   0.00009  -0.00054   0.01600   0.01549  -1.23875
   D19       -0.72775  -0.00065  -0.00071  -0.03996  -0.04068  -0.76842
   D20       -2.80123  -0.00063  -0.00052  -0.03775  -0.03827  -2.83950
   D21        1.41730  -0.00019  -0.00025  -0.03078  -0.03102   1.38628
   D22        1.16894  -0.00042  -0.00016  -0.04202  -0.04220   1.12674
   D23       -2.99373  -0.00040   0.00026  -0.03542  -0.03516  -3.02889
   D24       -0.92235   0.00042  -0.00014  -0.02408  -0.02422  -0.94656
   D25       -3.02553  -0.00069  -0.00069  -0.05794  -0.05862  -3.08415
   D26       -0.90502  -0.00067  -0.00027  -0.05133  -0.05158  -0.95660
   D27        1.16636   0.00015  -0.00067  -0.03999  -0.04064   1.12572
   D28       -0.99052  -0.00080  -0.00101  -0.05836  -0.05938  -1.04990
   D29        1.12999  -0.00078  -0.00059  -0.05175  -0.05234   1.07765
   D30       -3.08181   0.00004  -0.00099  -0.04041  -0.04139  -3.12321
   D31       -0.81321  -0.00115  -0.00073  -0.05379  -0.05449  -0.86771
   D32        1.30208  -0.00065  -0.00036  -0.04937  -0.04975   1.25233
   D33       -2.91378  -0.00038  -0.00056  -0.05305  -0.05361  -2.96739
   D34       -1.07007   0.00025   0.00046   0.01894   0.01939  -1.05068
   D35        3.10155   0.00011  -0.00002   0.01481   0.01480   3.11635
   D36        1.01473  -0.00034   0.00026   0.00665   0.00688   1.02162
   D37        3.12068   0.00052   0.00039   0.03095   0.03130  -3.13120
   D38        1.00911   0.00039  -0.00008   0.02683   0.02671   1.03583
   D39       -1.07770  -0.00007   0.00019   0.01867   0.01880  -1.05890
   D40        1.04634   0.00022   0.00045   0.02595   0.02640   1.07273
   D41       -1.06523   0.00008  -0.00003   0.02183   0.02181  -1.04342
   D42        3.13114  -0.00038   0.00025   0.01367   0.01389  -3.13815
   D43        0.78469  -0.00007   0.00050   0.02734   0.02787   0.81256
   D44       -1.32279   0.00044   0.00016   0.02981   0.02995  -1.29285
   D45        2.87568   0.00089   0.00024   0.03480   0.03502   2.91071
   D46       -1.04458   0.00091  -0.00031   0.01599   0.01568  -1.02890
   D47        1.05221   0.00081   0.00022   0.01801   0.01821   1.07043
   D48       -3.09610   0.00080   0.00007   0.01333   0.01338  -3.08272
   D49        1.04230   0.00004  -0.00046   0.00329   0.00283   1.04514
   D50        3.13910  -0.00007   0.00007   0.00531   0.00537  -3.13872
   D51       -1.00922  -0.00007  -0.00008   0.00063   0.00053  -1.00868
   D52        3.13339  -0.00002  -0.00036   0.00480   0.00445   3.13784
   D53       -1.05300  -0.00013   0.00017   0.00682   0.00698  -1.04602
   D54        1.08187  -0.00013   0.00002   0.00214   0.00215   1.08402
   D55       -1.13738   0.00003   0.00023  -0.04864  -0.04838  -1.18576
   D56        0.90985  -0.00039   0.00010  -0.05419  -0.05404   0.85581
   D57        2.96864  -0.00008  -0.00031  -0.05130  -0.05157   2.91708
   D58        0.93790  -0.00015   0.00003  -0.04287  -0.04288   0.89502
   D59        2.98513  -0.00057  -0.00011  -0.04842  -0.04854   2.93659
   D60       -1.23926  -0.00025  -0.00051  -0.04553  -0.04607  -1.28533
   D61        3.07211   0.00003  -0.00007  -0.04777  -0.04786   3.02425
   D62       -1.16385  -0.00039  -0.00020  -0.05331  -0.05351  -1.21737
   D63        0.89494  -0.00008  -0.00060  -0.05042  -0.05104   0.84390
   D64        0.78602   0.00060   0.00056   0.03638   0.03694   0.82295
   D65       -1.36332   0.00036   0.00027   0.03439   0.03465  -1.32867
   D66        2.85766   0.00080   0.00007   0.03715   0.03722   2.89488
         Item               Value     Threshold  Converged?
 Maximum Force            0.004546     0.000450     NO 
 RMS     Force            0.001079     0.000300     NO 
 Maximum Displacement     0.122323     0.001800     NO 
 RMS     Displacement     0.034808     0.001200     NO 
 Predicted change in Energy=-8.064330D-04
 GradGradGradGradGradGradGradGradGradGradGradGradGradGradGradGradGradGrad

                          Input orientation:                          
 ---------------------------------------------------------------------
 Center     Atomic      Atomic             Coordinates (Angstroms)
 Number     Number       Type             X           Y           Z
 ---------------------------------------------------------------------
      1          8           0        0.295217    1.345233   -0.058736
      2          6           0        1.277325    0.466315    0.412059
      3          1           0        1.812386    1.023217    1.183475
      4          8           0        2.160782    0.055592   -0.607565
      5          1           0        2.545993    0.836346   -1.017644
      6          6           0        0.666429   -0.808872    0.990799
      7          1           0        0.110717   -0.549157    1.895176
      8          8           0        1.650831   -1.744837    1.380822
      9          1           0        2.311479   -1.776264    0.678859
     10          6           0       -0.295890   -1.425785   -0.009003
     11          1           0        0.262161   -1.744736   -0.899166
     12          8           0       -0.991759   -2.526416    0.546158
     13          1           0       -0.346015   -3.112950    0.954833
     14          6           0       -1.320030   -0.394104   -0.426269
     15          1           0       -1.875000   -0.062651    0.461640
     16          8           0       -2.215637   -0.929218   -1.386362
     17          1           0       -2.500875   -1.794851   -1.074094
     18          6           0       -0.603928    0.806254   -1.034566
     19          1           0       -0.051257    0.480723   -1.922515
     20          6           0       -1.537847    1.947020   -1.417963
     21          1           0       -2.175281    2.189789   -0.557726
     22          1           0       -0.927560    2.823143   -1.640904
     23          8           0       -2.295578    1.668447   -2.571657
     24          1           0       -2.667806    0.784308   -2.481952
 ---------------------------------------------------------------------
                    Distance matrix (angstroms):
                    1          2          3          4          5
     1  O    0.000000
     2  C    1.399528   0.000000
     3  H    1.987104   1.091564   0.000000
     4  O    2.333392   1.410257   2.065310   0.000000
     5  H    2.498892   1.946919   2.327666   0.962355   0.000000
     6  C    2.424765   1.527820   2.169537   2.352692   3.205206
     7  H    2.727732   2.142847   2.423748   3.291231   4.041622
     8  O    3.668589   2.442786   2.779779   2.730436   3.635445
     9  H    3.788549   2.483912   2.888050   2.243501   3.123916
    10  C    2.833800   2.496466   3.444480   2.930528   3.769734
    11  H    3.202393   2.763805   3.795017   2.632675   3.448464
    12  O    4.124545   3.758080   4.568293   4.235134   5.125362
    13  H    4.616697   3.967489   4.671065   4.331833   5.277434
    14  C    2.401957   2.861707   3.796328   3.514420   4.099983
    15  H    2.638706   3.196782   3.911134   4.176688   4.747805
    16  O    3.638695   4.169246   5.161495   4.552957   5.091786
    17  H    4.325415   4.647185   5.625154   5.037146   5.691859
    18  C    1.432203   2.397373   3.287150   2.896454   3.150110
    19  H    2.083530   2.686183   3.662601   2.608246   2.773259
    20  C    2.360036   3.669695   4.341077   4.232505   4.251070
    21  H    2.658125   3.978861   4.504904   4.833086   4.932926
    22  H    2.486495   3.825025   4.327141   4.273755   4.049862
    23  O    3.623736   4.807632   5.602920   5.130118   5.152490
    24  H    3.868607   4.903110   5.793493   5.230642   5.415774
                    6          7          8          9         10
     6  C    0.000000
     7  H    1.092778   0.000000
     8  O    1.413222   2.016473   0.000000
     9  H    1.933739   2.797959   0.964466   0.000000
    10  C    1.518633   2.135346   2.413116   2.719258   0.000000
    11  H    2.147381   3.043138   2.669597   2.586670   1.097971
    12  O    2.428426   2.635309   2.879377   3.389944   1.415566
    13  H    2.516965   2.768732   2.457761   2.987501   1.943712
    14  C    2.475103   2.731334   3.730426   4.039745   1.512395
    15  H    2.701058   2.496955   4.013244   4.528826   2.138511
    16  O    3.737871   4.040403   4.824118   5.047515   2.414358
    17  H    3.907398   4.145930   4.823461   5.121714   2.476406
    18  C    2.885228   3.306243   4.174458   4.254977   2.475614
    19  H    3.265813   3.957481   4.331543   4.176562   2.712222
    20  C    4.272693   4.463805   5.624115   5.751245   3.860497
    21  H    4.411940   4.329474   5.820514   6.114715   4.111640
    22  H    4.760062   4.995427   6.053542   6.085000   4.595160
    23  O    5.253731   5.537203   6.545743   6.607335   4.487786
    24  H    5.071031   5.353277   6.322043   6.429661   4.077496
                   11         12         13         14         15
    11  H    0.000000
    12  O    2.066955   0.000000
    13  H    2.383107   0.963339   0.000000
    14  C    2.133346   2.366460   3.201292   0.000000
    15  H    3.041161   2.618663   3.447515   1.098288   0.000000
    16  O    2.653660   2.789902   3.707474   1.417828   2.069320
    17  H    2.769022   2.331917   3.239962   1.943236   2.398066
    18  C    2.697404   3.708880   4.402770   1.524364   2.146917
    19  H    2.469442   4.002722   4.613079   2.147990   3.050491
    20  C    4.139836   4.916057   5.714361   2.551815   2.772248
    21  H    4.640925   4.986168   5.809740   2.724929   2.490534
    22  H    4.778193   5.779718   6.504863   3.461220   3.694068
    23  O    4.581383   5.386798   6.252894   3.131852   3.517738
    24  H    4.181624   4.789518   5.691294   2.725984   3.163956
                   16         17         18         19         20
    16  O    0.000000
    17  H    0.963428   0.000000
    18  C    2.394416   3.219584   0.000000
    19  H    2.638169   3.449448   1.095385   0.000000
    20  C    2.955189   3.879082   1.523334   2.148150   0.000000
    21  H    3.227455   4.031129   2.147253   3.048775   1.097846
    22  H    3.975442   4.911463   2.130781   2.516772   1.090753
    23  O    2.856427   3.778793   2.442889   2.620887   1.408109
    24  H    2.083493   2.943126   2.520913   2.692854   1.939274
                   21         22         23         24
    21  H    0.000000
    22  H    1.769525   0.000000
    23  O    2.083791   2.017696   0.000000
    24  H    2.433229   2.809389   0.963485   0.000000
 Symmetry turned off by external request.
 Stoichiometry    C6H12O6
 Framework group  C1[X(C6H12O6)]
 Deg. of freedom    66
 Full point group                 C1      NOp   1
 Rotational constants (GHZ):           1.3998863           0.7425619           0.5365704
 Standard basis: STO-3G (5D, 7F)
    72 basis functions,   216 primitive gaussians,    72 cartesian basis functions
    48 alpha electrons       48 beta electrons
       nuclear repulsion energy       838.2173818933 Hartrees.
 NAtoms=   24 NActive=   24 NUniq=   24 SFac= 1.00D+00 NAtFMM=   60 NAOKFM=F Big=F
 Integral buffers will be    131072 words long.
 Raffenetti 1 integral format.
 Two-electron integral symmetry is turned off.
 External calculation of energy and first derivatives.
 Running external command "bash gausch.sh R"
         input file       "/tmp/Gau-3005062.EIn"
         output file      "/tmp/Gau-3005062.EOu"
         message file     "/tmp/Gau-3005062.EMs"
         fchk file        "/tmp/Gau-3005062.EFC"
         mat. el file     "/tmp/Gau-3005062.EUF"
Running schnet predictor...
Process ./best_model
 Recovered energy= -687.146789551     dipole=      0.000000000000      0.000000000000      0.000000000000
 Energy=    -687.146790     NIter=   0.
 Dipole moment=       0.000000       0.000000       0.000000
 -------------------------------------------------------------------
 Center     Atomic                   Forces (Hartrees/Bohr)
 Number     Number              X              Y              Z
 -------------------------------------------------------------------
      1        8          -0.001130147   -0.000386197   -0.000943183
      2        6           0.000614837    0.000738773   -0.000768904
      3        1           0.000722452    0.000351024    0.000700228
      4        8          -0.001889616   -0.000530947   -0.000097618
      5        1           0.000858042   -0.000157405    0.000954171
      6        6           0.000978297   -0.001827519    0.001796440
      7        1          -0.000303774    0.000403497    0.000362798
      8        8           0.000077499    0.001503619   -0.000476057
      9        1           0.000180790   -0.000251470   -0.000461366
     10        6          -0.000080579   -0.001723462   -0.000651813
     11        1           0.000505601   -0.000315334   -0.000715260
     12        8          -0.000174047    0.001739105    0.000375808
     13        1           0.000285563    0.000183789   -0.000390776
     14        6          -0.002257032   -0.001470965   -0.001603466
     15        1          -0.000413048    0.000366574    0.000884507
     16        8           0.001022313    0.002505219   -0.000701412
     17        1          -0.000080231   -0.000150169    0.000507345
     18        6           0.001272311    0.000784705    0.001106187
     19        1           0.000259603   -0.000325575   -0.000823219
     20        6          -0.000495496    0.000107925   -0.000496837
     21        1          -0.000572356   -0.000210380    0.000408989
     22        1           0.000239924    0.000245304    0.000207043
     23        8           0.001035834   -0.001162632    0.000109652
     24        1          -0.000656727   -0.000417483    0.000716736
 -------------------------------------------------------------------
 Cartesian Forces:  Max     0.002505219 RMS     0.000889994

 GradGradGradGradGradGradGradGradGradGradGradGradGradGradGradGradGradGrad
 Berny optimization.
 Using GEDIIS/GDIIS optimizer.
 FormGI is forming the generalized inverse of G from B-inverse, IUseBI=4.
 Internal  Forces:  Max     0.002956473 RMS     0.000702694
 Search for a local minimum.
 Step number   3 out of a maximum of  142
 All quantities printed in internal units (Hartrees-Bohrs-Radians)
 Mixed Optimization -- En-DIIS/RFO-DIIS
 Update second derivatives using D2CorX and points    1    2    3
 DE= -6.71D-04 DEPred=-8.06D-04 R= 8.33D-01
 TightC=F SS=  1.41D+00  RLast= 3.05D-01 DXNew= 8.4853D-01 9.1630D-01
 Trust test= 8.33D-01 RLast= 3.05D-01 DXMaxT set to 8.49D-01
 ITU=  1  1  0
 Use linear search instead of GDIIS.
     Eigenvalues ---    0.00307   0.00535   0.00610   0.00851   0.01183
     Eigenvalues ---    0.01255   0.01268   0.01316   0.01502   0.02733
     Eigenvalues ---    0.03116   0.04209   0.04498   0.04775   0.04911
     Eigenvalues ---    0.04978   0.05131   0.05405   0.05741   0.05984
     Eigenvalues ---    0.06423   0.06743   0.06985   0.07142   0.07944
     Eigenvalues ---    0.08972   0.10455   0.11295   0.11580   0.14000
     Eigenvalues ---    0.14713   0.15731   0.16000   0.16000   0.16019
     Eigenvalues ---    0.16119   0.16696   0.17254   0.18926   0.19692
     Eigenvalues ---    0.20554   0.24426   0.26284   0.27337   0.28210
     Eigenvalues ---    0.28617   0.31481   0.32063   0.32271   0.32346
     Eigenvalues ---    0.32529   0.33023   0.33235   0.33510   0.34200
     Eigenvalues ---    0.37624   0.40353   0.40595   0.41180   0.42698
     Eigenvalues ---    0.43712   0.52798   0.53000   0.53089   0.53339
     Eigenvalues ---    0.53648
 RFO step:  Lambda=-6.41559453D-04 EMin= 3.06649948D-03
 Quartic linear search produced a step of -0.07363.
 Iteration  1 RMS(Cart)=  0.03006367 RMS(Int)=  0.00074463
 Iteration  2 RMS(Cart)=  0.00078863 RMS(Int)=  0.00001935
 Iteration  3 RMS(Cart)=  0.00000035 RMS(Int)=  0.00001935
 Variable       Old X    -DE/DX   Delta X   Delta X   Delta X     New X
                                 (Linear)    (Quad)   (Total)
    R1        2.64473   0.00057   0.00107  -0.00840  -0.00733   2.63739
    R2        2.70647  -0.00055   0.00065  -0.00987  -0.00922   2.69725
    R3        2.06276   0.00103   0.00014   0.00008   0.00021   2.06297
    R4        2.66500  -0.00107   0.00001  -0.00380  -0.00379   2.66121
    R5        2.88716   0.00019  -0.00072   0.00508   0.00436   2.89153
    R6        1.81859  -0.00019  -0.00003  -0.00071  -0.00074   1.81785
    R7        2.06505   0.00055  -0.00012   0.00134   0.00123   2.06628
    R8        2.67060  -0.00091   0.00059  -0.00750  -0.00691   2.66369
    R9        2.86980   0.00127   0.00031   0.00231   0.00262   2.87242
   R10        1.82258   0.00047   0.00007  -0.00024  -0.00017   1.82241
   R11        2.07486   0.00093   0.00001   0.00136   0.00137   2.07624
   R12        2.67503  -0.00156  -0.00008  -0.00418  -0.00426   2.67077
   R13        2.85801   0.00080  -0.00011   0.00105   0.00094   2.85896
   R14        1.82045  -0.00009   0.00003  -0.00088  -0.00085   1.81960
   R15        2.07546   0.00103   0.00013   0.00087   0.00100   2.07646
   R16        2.67931  -0.00135   0.00050  -0.00759  -0.00708   2.67222
   R17        2.88063  -0.00123  -0.00052  -0.00310  -0.00363   2.87700
   R18        1.82062   0.00032   0.00013  -0.00094  -0.00082   1.81980
   R19        2.06998   0.00090   0.00008   0.00086   0.00094   2.07092
   R20        2.87868  -0.00104  -0.00060  -0.00050  -0.00111   2.87758
   R21        2.07463   0.00061   0.00023  -0.00090  -0.00067   2.07396
   R22        2.06123   0.00029  -0.00004   0.00024   0.00020   2.06142
   R23        2.66094  -0.00057   0.00006  -0.00191  -0.00186   2.65908
   R24        1.82072   0.00070   0.00018  -0.00071  -0.00053   1.82019
    A1        2.01908   0.00006  -0.00102   0.00218   0.00115   2.02024
    A2        1.83517   0.00032  -0.00006   0.00555   0.00549   1.84067
    A3        1.95983   0.00067   0.00007   0.00261   0.00268   1.96251
    A4        1.95088  -0.00009   0.00068  -0.00049   0.00019   1.95108
    A5        1.93100   0.00025  -0.00012   0.00107   0.00092   1.93192
    A6        1.93277  -0.00000   0.00046  -0.00514  -0.00468   1.92809
    A7        1.85592  -0.00111  -0.00100  -0.00366  -0.00466   1.85126
    A8        1.89923  -0.00009  -0.00157   0.00939   0.00782   1.90705
    A9        1.89490   0.00012   0.00054  -0.00587  -0.00533   1.88958
   A10        1.95930  -0.00071  -0.00080  -0.00156  -0.00237   1.95692
   A11        1.92095  -0.00048   0.00019   0.00172   0.00191   1.92286
   A12        1.85795   0.00027  -0.00005   0.00448   0.00443   1.86238
   A13        1.89563   0.00013   0.00071  -0.00305  -0.00234   1.89329
   A14        1.93269   0.00070  -0.00054   0.00403   0.00350   1.93619
   A15        1.87324   0.00005  -0.00061   0.00405   0.00344   1.87668
   A16        1.90677  -0.00016   0.00003   0.00296   0.00299   1.90976
   A17        1.94890  -0.00003  -0.00032  -0.00206  -0.00239   1.94651
   A18        1.91095   0.00015   0.00063  -0.00318  -0.00255   1.90840
   A19        1.91978   0.00034  -0.00026   0.00638   0.00611   1.92589
   A20        1.89510  -0.00001   0.00075  -0.00327  -0.00251   1.89260
   A21        1.88148  -0.00028  -0.00082  -0.00099  -0.00182   1.87965
   A22        1.88626  -0.00078  -0.00116   0.00324   0.00208   1.88834
   A23        1.90180   0.00015   0.00056  -0.00253  -0.00200   1.89979
   A24        1.93598   0.00129  -0.00057   0.01396   0.01337   1.94935
   A25        1.90619  -0.00051  -0.00007  -0.00172  -0.00177   1.90443
   A26        1.92001   0.00002  -0.00028   0.00507   0.00473   1.92475
   A27        1.89900   0.00025   0.00052  -0.00388  -0.00337   1.89563
   A28        1.90046  -0.00123  -0.00015  -0.01124  -0.01137   1.88908
   A29        1.88246  -0.00064  -0.00055   0.00055   0.00000   1.88246
   A30        1.89586   0.00072  -0.00016   0.00476   0.00462   1.90048
   A31        1.92560  -0.00021  -0.00028   0.00755   0.00729   1.93288
   A32        1.84893   0.00122   0.00028   0.00838   0.00870   1.85762
   A33        1.90338   0.00035   0.00042  -0.00518  -0.00484   1.89854
   A34        1.98463  -0.00256  -0.00068  -0.01031  -0.01103   1.97359
   A35        1.90483   0.00051   0.00040  -0.00425  -0.00396   1.90086
   A36        1.90112   0.00083   0.00036  -0.00237  -0.00204   1.89908
   A37        1.88591   0.00046   0.00039  -0.00020   0.00020   1.88611
   A38        1.96922  -0.00296  -0.00102  -0.00505  -0.00609   1.96313
   A39        1.88326  -0.00016   0.00000   0.00405   0.00406   1.88731
   A40        1.95336   0.00049   0.00017  -0.00415  -0.00401   1.94934
   A41        1.86766   0.00145   0.00014   0.00847   0.00862   1.87628
   A42        1.88931  -0.00071  -0.00005  -0.00431  -0.00435   1.88496
    D1       -3.07570   0.00004  -0.00099   0.00800   0.00701  -3.06869
    D2        1.10659  -0.00084  -0.00085   0.00174   0.00089   1.10748
    D3       -0.97759   0.00019  -0.00009   0.00497   0.00488  -0.97271
    D4        1.03290   0.00025   0.00113   0.00048   0.00159   1.03449
    D5       -1.05259  -0.00050   0.00088  -0.00063   0.00026  -1.05234
    D6       -3.11198  -0.00169   0.00039  -0.00430  -0.00392  -3.11590
    D7        0.97111   0.00121  -0.00573   0.09228   0.08655   1.05766
    D8       -1.07338   0.00022  -0.00562   0.08297   0.07734  -0.99603
    D9        3.10995   0.00076  -0.00551   0.09079   0.08528  -3.08795
   D10       -1.16701  -0.00013  -0.00261   0.00263   0.00002  -1.16699
   D11        3.06699  -0.00013  -0.00242   0.00176  -0.00066   3.06633
   D12        0.90573  -0.00018  -0.00130  -0.00360  -0.00490   0.90082
   D13        0.87298   0.00022  -0.00196   0.00595   0.00399   0.87697
   D14       -1.17621   0.00022  -0.00176   0.00509   0.00331  -1.17290
   D15        2.94572   0.00017  -0.00064  -0.00028  -0.00093   2.94478
   D16        2.97169  -0.00016  -0.00245   0.00213  -0.00031   2.97138
   D17        0.92251  -0.00016  -0.00226   0.00127  -0.00099   0.92152
   D18       -1.23875  -0.00021  -0.00114  -0.00410  -0.00523  -1.24399
   D19       -0.76842   0.00001   0.00300  -0.03517  -0.03217  -0.80060
   D20       -2.83950   0.00008   0.00282  -0.02996  -0.02713  -2.86664
   D21        1.38628  -0.00061   0.00228  -0.03109  -0.02882   1.35746
   D22        1.12674  -0.00020   0.00311  -0.00224   0.00086   1.12760
   D23       -3.02889   0.00009   0.00259   0.00647   0.00905  -3.01984
   D24       -0.94656  -0.00018   0.00178   0.00186   0.00364  -0.94292
   D25       -3.08415  -0.00025   0.00432  -0.01021  -0.00590  -3.09005
   D26       -0.95660   0.00005   0.00380  -0.00150   0.00230  -0.95430
   D27        1.12572  -0.00023   0.00299  -0.00611  -0.00311   1.12261
   D28       -1.04990   0.00055   0.00437  -0.00431   0.00006  -1.04984
   D29        1.07765   0.00085   0.00385   0.00440   0.00825   1.08590
   D30       -3.12321   0.00058   0.00305  -0.00021   0.00284  -3.12037
   D31       -0.86771  -0.00017   0.00401  -0.04324  -0.03922  -0.90693
   D32        1.25233  -0.00016   0.00366  -0.03648  -0.03282   1.21952
[...]
 Predicted change in Energy=-2.383192D-08
 Optimization completed.
    -- Stationary point found.
                           ----------------------------
                           !   Optimized Parameters   !
                           ! (Angstroms and Degrees)  !
 --------------------------                            --------------------------
 ! Name  Definition              Value          Derivative Info.                !
 --------------------------------------------------------------------------------
 ! R1    R(1,2)                  1.4            -DE/DX =    0.0                 !
 ! R2    R(1,18)                 1.4288         -DE/DX =    0.0                 !
 ! R3    R(2,3)                  1.0929         -DE/DX =    0.0                 !
 ! R4    R(2,4)                  1.409          -DE/DX =    0.0                 !
 ! R5    R(2,6)                  1.5301         -DE/DX =    0.0                 !
 ! R6    R(4,5)                  0.9617         -DE/DX =    0.0                 !
 ! R7    R(6,7)                  1.0934         -DE/DX =    0.0                 !
 ! R8    R(6,8)                  1.4109         -DE/DX =    0.0                 !
 ! R9    R(6,10)                 1.5225         -DE/DX =    0.0                 !
 ! R10   R(8,9)                  0.9649         -DE/DX =    0.0                 !
 ! R11   R(10,11)                1.0993         -DE/DX =    0.0                 !
 ! R12   R(10,12)                1.4143         -DE/DX =    0.0                 !
 ! R13   R(10,14)                1.5136         -DE/DX =    0.0                 !
 ! R14   R(12,13)                0.963          -DE/DX =    0.0                 !
 ! R15   R(14,15)                1.1001         -DE/DX =    0.0                 !
 ! R16   R(14,16)                1.4158         -DE/DX =    0.0                 !
 ! R17   R(14,18)                1.5247         -DE/DX =    0.0                 !
 ! R18   R(16,17)                0.9636         -DE/DX =    0.0                 !
 ! R19   R(18,19)                1.0966         -DE/DX =    0.0                 !
 ! R20   R(18,20)                1.5236         -DE/DX =    0.0                 !
 ! R21   R(20,21)                1.099          -DE/DX =    0.0                 !
 ! R22   R(20,22)                1.0909         -DE/DX =    0.0                 !
 ! R23   R(20,23)                1.4076         -DE/DX =    0.0                 !
 ! R24   R(23,24)                0.964          -DE/DX =    0.0                 !
 ! A1    A(2,1,18)             115.2514         -DE/DX =    0.0                 !
 ! A2    A(1,2,3)              105.4196         -DE/DX =    0.0                 !
 ! A3    A(1,2,4)              112.3974         -DE/DX =    0.0                 !
 ! A4    A(1,2,6)              111.8782         -DE/DX =    0.0                 !
 ! A5    A(3,2,4)              110.7432         -DE/DX =    0.0                 !
 ! A6    A(3,2,6)              110.6412         -DE/DX =    0.0                 !
 ! A7    A(4,2,6)              105.8595         -DE/DX =    0.0                 !
 ! A8    A(2,4,5)              109.2397         -DE/DX =    0.0                 !
 ! A9    A(2,6,7)              108.6173         -DE/DX =    0.0                 !
 ! A10   A(2,6,8)              111.6653         -DE/DX =    0.0                 !
 ! A11   A(2,6,10)             110.1324         -DE/DX =    0.0                 !
 ! A12   A(7,6,8)              106.7844         -DE/DX =    0.0                 !
 ! A13   A(7,6,10)             108.5391         -DE/DX =    0.0                 !
 ! A14   A(8,6,10)             110.9695         -DE/DX =    0.0                 !
 ! A15   A(6,8,9)              107.0779         -DE/DX =    0.0                 !
 ! A16   A(6,10,11)            109.3951         -DE/DX =    0.0                 !
 ! A17   A(6,10,12)            111.4189         -DE/DX =    0.0                 !
 ! A18   A(6,10,14)            109.5007         -DE/DX =    0.0                 !
 ! A19   A(11,10,12)           110.2692         -DE/DX =    0.0                 !
 ! A20   A(11,10,14)           108.7554         -DE/DX =    0.0                 !
 ! A21   A(12,10,14)           107.444          -DE/DX =    0.0                 !
 ! A22   A(10,12,13)           108.0033         -DE/DX =    0.0                 !
 ! A23   A(10,14,15)           108.7325         -DE/DX =    0.0                 !
 ! A24   A(10,14,16)           111.2559         -DE/DX =    0.0                 !
 ! A25   A(10,14,18)           109.3568         -DE/DX =    0.0                 !
 ! A26   A(15,14,16)           110.1112         -DE/DX =    0.0                 !
 ! A27   A(15,14,18)           108.7066         -DE/DX =    0.0                 !
 ! A28   A(16,14,18)           108.6373         -DE/DX =    0.0                 !
 ! A29   A(14,16,17)           107.7464         -DE/DX =    0.0                 !
 ! A30   A(1,18,14)            108.7161         -DE/DX =    0.0                 !
 ! A31   A(1,18,19)            110.3921         -DE/DX =    0.0                 !
 ! A32   A(1,18,20)            106.6781         -DE/DX =    0.0                 !
 ! A33   A(14,18,19)           109.1778         -DE/DX =    0.0                 !
 ! A34   A(14,18,20)           112.8688         -DE/DX =    0.0                 !
 ! A35   A(19,18,20)           108.983          -DE/DX =    0.0                 !
 ! A36   A(18,20,21)           109.023          -DE/DX =    0.0                 !
 ! A37   A(18,20,22)           108.3295         -DE/DX =    0.0                 !
 ! A38   A(18,20,23)           112.1311         -DE/DX =    0.0                 !
 ! A39   A(21,20,22)           108.0675         -DE/DX =    0.0                 !
 ! A40   A(21,20,23)           111.9051         -DE/DX =    0.0                 !
 ! A41   A(22,20,23)           107.2302         -DE/DX =    0.0                 !
 ! A42   A(20,23,24)           107.8717         -DE/DX =    0.0                 !
 ! D1    D(18,1,2,3)          -176.9071         -DE/DX =    0.0                 !
 ! D2    D(18,1,2,4)            62.3592         -DE/DX =    0.0                 !
 ! D3    D(18,1,2,6)           -56.5881         -DE/DX =    0.0                 !
 ! D4    D(2,1,18,14)           59.8997         -DE/DX =    0.0                 !
 ! D5    D(2,1,18,19)          -59.8343         -DE/DX =    0.0                 !
 ! D6    D(2,1,18,20)         -178.1057         -DE/DX =    0.0                 !
 ! D7    D(1,2,4,5)             65.5959         -DE/DX =    0.0                 !
 ! D8    D(3,2,4,5)            -52.0233         -DE/DX =    0.0                 !
 ! D9    D(6,2,4,5)           -171.9877         -DE/DX =    0.0                 !
 ! D10   D(1,2,6,7)            -66.9342         -DE/DX =    0.0                 !
 ! D11   D(1,2,6,8)            175.5688         -DE/DX =    0.0                 !
 ! D12   D(1,2,6,10)            51.8058         -DE/DX =    0.0                 !
 ! D13   D(3,2,6,7)             50.2878         -DE/DX =    0.0                 !
 ! D14   D(3,2,6,8)            -67.2091         -DE/DX =    0.0                 !
 ! D15   D(3,2,6,10)           169.0279         -DE/DX =    0.0                 !
 ! D16   D(4,2,6,7)            170.3189         -DE/DX =    0.0                 !
 ! D17   D(4,2,6,8)             52.822          -DE/DX =    0.0                 !
 ! D18   D(4,2,6,10)           -70.941          -DE/DX =    0.0                 !
 ! D19   D(2,6,8,9)            -45.3275         -DE/DX =    0.0                 !
 ! D20   D(7,6,8,9)           -163.9225         -DE/DX =    0.0                 !
 ! D21   D(10,6,8,9)            77.9619         -DE/DX =    0.0                 !
 ! D22   D(2,6,10,11)           65.6856         -DE/DX =    0.0                 !
 ! D23   D(2,6,10,12)         -172.1314         -DE/DX =    0.0                 !
 ! D24   D(2,6,10,14)          -53.4115         -DE/DX =    0.0                 !
 ! D25   D(7,6,10,11)         -175.5265         -DE/DX =    0.0                 !
 ! D26   D(7,6,10,12)          -53.3435         -DE/DX =    0.0                 !
 ! D27   D(7,6,10,14)           65.3764         -DE/DX =    0.0                 !
 ! D28   D(8,6,10,11)          -58.4805         -DE/DX =    0.0                 !
 ! D29   D(8,6,10,12)           63.7025         -DE/DX =    0.0                 !
 ! D30   D(8,6,10,14)         -177.5777         -DE/DX =    0.0                 !
 ! D31   D(6,10,12,13)         -52.9091         -DE/DX =    0.0                 !
 ! D32   D(11,10,12,13)         68.768          -DE/DX =    0.0                 !
 ! D33   D(14,10,12,13)       -172.8518         -DE/DX =    0.0                 !
 ! D34   D(6,10,14,15)         -60.6858         -DE/DX =    0.0                 !
 ! D35   D(6,10,14,16)         177.8817         -DE/DX =    0.0                 !
 ! D36   D(6,10,14,18)          57.8746         -DE/DX =    0.0                 !
 ! D37   D(11,10,14,15)        179.8228         -DE/DX =    0.0                 !
 ! D38   D(11,10,14,16)         58.3903         -DE/DX =    0.0                 !
 ! D39   D(11,10,14,18)        -61.6167         -DE/DX =    0.0                 !
 ! D40   D(12,10,14,15)         60.4695         -DE/DX =    0.0                 !
 ! D41   D(12,10,14,16)        -60.963          -DE/DX =    0.0                 !
 ! D42   D(12,10,14,18)        179.03           -DE/DX =    0.0                 !
 ! D43   D(10,14,16,17)         48.7402         -DE/DX =    0.0                 !
 ! D44   D(15,14,16,17)        -71.8841         -DE/DX =    0.0                 !
 ! D45   D(18,14,16,17)        169.1726         -DE/DX =    0.0                 !
 ! D46   D(10,14,18,1)         -59.2623         -DE/DX =    0.0                 !
 ! D47   D(10,14,18,19)         61.2249         -DE/DX =    0.0                 !
 ! D48   D(10,14,18,20)       -177.411          -DE/DX =    0.0                 !
 ! D49   D(15,14,18,1)          59.3142         -DE/DX =    0.0                 !
 ! D50   D(15,14,18,19)        179.8015         -DE/DX =    0.0                 !
 ! D51   D(15,14,18,20)        -58.8345         -DE/DX =    0.0                 !
 ! D52   D(16,14,18,1)         179.1365         -DE/DX =    0.0                 !
 ! D53   D(16,14,18,19)        -60.3762         -DE/DX =    0.0                 !
 ! D54   D(16,14,18,20)         60.9878         -DE/DX =    0.0                 !
 ! D55   D(1,18,20,21)         -68.9812         -DE/DX =    0.0                 !
 ! D56   D(1,18,20,22)          48.3935         -DE/DX =    0.0                 !
 ! D57   D(1,18,20,23)         166.5314         -DE/DX =    0.0                 !
 ! D58   D(14,18,20,21)         50.3533         -DE/DX =    0.0                 !
 ! D59   D(14,18,20,22)        167.728          -DE/DX =    0.0                 !
 ! D60   D(14,18,20,23)        -74.1341         -DE/DX =    0.0                 !
 ! D61   D(19,18,20,21)        171.8276         -DE/DX =    0.0                 !
 ! D62   D(19,18,20,22)        -70.7976         -DE/DX =    0.0                 !
 ! D63   D(19,18,20,23)         47.3402         -DE/DX =    0.0                 !
 ! D64   D(18,20,23,24)         51.0783         -DE/DX =    0.0                 !
 ! D65   D(21,20,23,24)        -71.795          -DE/DX =    0.0                 !
 ! D66   D(22,20,23,24)        169.8664         -DE/DX =    0.0                 !
 --------------------------------------------------------------------------------
 GradGradGradGradGradGradGradGradGradGradGradGradGradGradGradGradGradGrad

                          Input orientation:                          
 ---------------------------------------------------------------------
 Center     Atomic      Atomic             Coordinates (Angstroms)
 Number     Number       Type             X           Y           Z
 ---------------------------------------------------------------------
      1          8           0        0.290552    1.353114   -0.051934
      2          6           0        1.277323    0.472997    0.408278
      3          1           0        1.822375    1.024552    1.178385
      4          8           0        2.147967    0.057994   -0.618908
      5          1           0        2.649748    0.815342   -0.934272
      6          6           0        0.673546   -0.807979    0.987625
      7          1           0        0.124954   -0.554257    1.898765
      8          8           0        1.672139   -1.733468    1.357665
      9          1           0        2.310056   -1.766340    0.634423
     10          6           0       -0.299646   -1.425221   -0.007371
     11          1           0        0.251541   -1.759089   -0.897963
     12          8           0       -1.006803   -2.507727    0.565532
     13          1           0       -0.363281   -3.120512    0.936754
     14          6           0       -1.319346   -0.388132   -0.426535
     15          1           0       -1.872872   -0.056623    0.464482
     16          8           0       -2.215663   -0.909843   -1.390270
     17          1           0       -2.533985   -1.759508   -1.065737
     18          6           0       -0.599820    0.812919   -1.030134
     19          1           0       -0.042262    0.490213   -1.917519
     20          6           0       -1.550714    1.936412   -1.423728
     21          1           0       -2.211560    2.160354   -0.574623
     22          1           0       -0.959054    2.827958   -1.636298
     23          8           0       -2.278432    1.631267   -2.589302
     24          1           0       -2.677910    0.762123   -2.469615
 ---------------------------------------------------------------------
                    Distance matrix (angstroms):
                    1          2          3          4          5
     1  O    0.000000
     2  C    1.400043   0.000000
     3  H    1.992015   1.092868   0.000000
     4  O    2.334264   1.409028   2.066521   0.000000
     5  H    2.575563   1.950177   2.278516   0.961672   0.000000
     6  C    2.428516   1.530061   2.171259   2.346226   3.199099
     7  H    2.733261   2.145870   2.427514   3.287266   4.034413
     8  O    3.663706   2.434276   2.767921   2.709722   3.564425
     9  H    3.778952   2.476349   2.884927   2.219303   3.039946
    10  C    2.840680   2.502564   3.451142   2.926554   3.818140
    11  H    3.225382   2.782211   3.811482   2.641229   3.518580
    12  O    4.119525   3.758547   4.566928   4.235375   5.163581
    13  H    4.627994   3.985495   4.692231   4.339280   5.298115
    14  C    2.400840   2.860270   3.800244   3.501185   4.178499
    15  H    2.633334   3.194900   3.915795   4.165816   4.813619
    16  O    3.632249   4.165090   5.161941   4.535745   5.182318
    17  H    4.323681   4.656487   5.636040   5.042187   5.789492
    18  C    1.428792   2.389193   3.284719   2.879124   3.250982
    19  H    2.082251   2.674123   3.653357   2.582694   2.884337
    20  C    2.369032   3.673639   4.356628   4.225687   4.374956
    21  H    2.680560   3.998197   4.542655   4.840181   5.056750
    22  H    2.499377   3.837645   4.348685   4.285016   4.191290
    23  O    3.621502   4.792752   5.601802   5.094178   5.262301
    24  H    3.873785   4.899973   5.799081   5.216320   5.544731
                    6          7          8          9         10
     6  C    0.000000
     7  H    1.093391   0.000000
     8  O    1.410903   2.019186   0.000000
     9  H    1.929086   2.800424   0.964934   0.000000
    10  C    1.522533   2.138275   2.417907   2.709023   0.000000
    11  H    2.153634   3.047840   2.665822   2.566270   1.099285
    12  O    2.427113   2.621913   2.898910   3.399405   1.414252
    13  H    2.534838   2.783793   2.498798   3.011962   1.941502
    14  C    2.479463   2.742375   3.733936   4.024630   1.513618
    15  H    2.706004   2.509206   4.022025   4.522046   2.137930
    16  O    3.743300   4.052491   4.831616   5.031412   2.418501
    17  H    3.925552   4.160632   4.854383   5.133744   2.494826
    18  C    2.884463   3.312540   4.165029   4.229741   2.478996
    19  H    3.261525   3.960165   4.314019   4.139787   2.717315
    20  C    4.277106   4.477751   5.620582   5.731658   3.856399
    21  H    4.424416   4.352707   5.829126   6.109479   4.102870
    22  H    4.771833   5.011100   6.057524   6.078719   4.601929
    23  O    5.240086   5.540354   6.519739   6.556703   4.463640
    24  H    5.064581   5.354591   6.308642   6.395934   4.062420
                   11         12         13         14         15
    11  H    0.000000
    12  O    2.070195   0.000000
    13  H    2.365938   0.963032   0.000000
    14  C    2.137628   2.361052   3.199768   0.000000
    15  H    3.044303   2.601576   3.448089   1.100091   0.000000
    16  O    2.655312   2.799953   3.705862   1.415752   2.070168
    17  H    2.790574   2.356513   3.251808   1.940258   2.382952
    18  C    2.712473   3.706546   4.404143   1.524655   2.147241
    19  H    2.487001   4.010428   4.613812   2.150690   3.053538
    20  C    4.145031   4.899324   5.705642   2.539967   2.764293
    21  H    4.640415   4.954026   5.795510   2.704211   2.471728
    22  H    4.801216   5.772337   6.508443   3.454934   3.683633
    23  O    4.555865   5.357359   6.219347   3.110527   3.512699
    24  H    4.172323   4.764099   5.660009   2.709789   3.150771
                   16         17         18         19         20
    16  O    0.000000
    17  H    0.963629   0.000000
    18  C    2.389259   3.218641   0.000000
    19  H    2.638527   3.463447   1.096569   0.000000
    20  C    2.923089   3.841199   1.523598   2.147265   0.000000
    21  H    3.176698   3.963644   2.149599   3.049360   1.099021
    22  H    3.951045   4.883728   2.134681   2.526785   1.090918
    23  O    2.810491   3.726113   2.432784   2.598799   1.407569
    24  H    2.043068   2.889674   2.528466   2.706545   1.934788
                   21         22         23         24
    21  H    0.000000
    22  H    1.772462   0.000000
    23  O    2.084067   2.020159   0.000000
    24  H    2.400735   2.813638   0.964012   0.000000
 Symmetry turned off by external request.
 Stoichiometry    C6H12O6
 Framework group  C1[X(C6H12O6)]
 Deg. of freedom    66
 Full point group                 C1      NOp   1
 Rotational constants (GHZ):           1.4023650           0.7449566           0.5388028
 1\1\GINC-NODEB315\FOpt\External='bash gausch.sh'\ZDO\C6H12O6\PTSOU\21-
 Jul-2026\0\\#external='bash gausch.sh' opt=nomicro nosymm\\SchNet-G16\
 \0,1\O,0.2905516578,1.3531139969,-0.0519343752\C,1.2773233908,0.472996
 6283,0.4082782143\H,1.8223750725,1.0245520658,1.1783854822\O,2.1479672
 633,0.0579943543,-0.6189083806\H,2.6497475623,0.8153420651,-0.93427203
 75\C,0.6735460678,-0.8079788397,0.9876250107\H,0.1249538518,-0.5542572
 046,1.8987651702\O,1.6721390842,-1.733468306,1.3576645023\H,2.31005611
 72,-1.7663395923,0.6344229132\C,-0.2996458671,-1.4252210866,-0.0073710
 243\H,0.2515414192,-1.7590885481,-0.8979627391\O,-1.0068028242,-2.5077
 272892,0.5655323636\H,-0.3632808106,-3.1205116068,0.9367537444\C,-1.31
 9345996,-0.3881319589,-0.426534816\H,-1.8728720091,-0.0566230672,0.464
 4824215\O,-2.2156633612,-0.9098434548,-1.3902698102\H,-2.5339850558,-1
 .7595084869,-1.0657365748\C,-0.5998200664,0.8129194178,-1.0301340356\H
 ,-0.0422617593,0.4902129382,-1.9175191306\C,-1.5507136757,1.9364121572
 ,-1.4237281381\H,-2.211560085,2.1603540995,-0.5746229913\H,-0.95905353
 54,2.8279578436,-1.6362984709\O,-2.278431912,1.6312672915,-2.589302009
 8\H,-2.6779095291,0.7621225828,-2.4696152883\\Version=ES64L-G16RevB.01
 \HF=-687.1472168\RMSD=0.000e+00\RMSF=1.253e-05\Dipole=0.,0.,0.\PG=C01 
 [X(C6H12O6)]\\@


 ERROR IS A HARDY PLANT... IT FLOURISHETH IN EVERY SOIL.
            MARTIN FARQUHAR TUPPER
 Job cpu time:       0 days  0 hours  0 minutes  1.0 seconds.
 Elapsed time:       0 days  0 hours  0 minutes 24.3 seconds.
 File lengths (MBytes):  RWF=      6 Int=      0 D2E=      0 Chk=      2 Scr=      1
 Normal termination of Gaussian 16 at Tue Jul 21 16:14:51 2026.
